 vasp.5.4.4.18Apr17-6-g9f103f2a35 (build Feb 28 2019 12:03:04) complex          
  
 executed on             LinuxIFC date 2021.04.24  22:37:04
 running on   32 total cores
 distrk:  each k-point on   32 cores,    1 groups
 distr:  one band on NCORES_PER_BAND=   1 cores,   32 groups


--------------------------------------------------------------------------------------------------------


 INCAR:
 POTCAR:    PAW_PBE Ge 05Jan2001                  
 POTCAR:    PAW_PBE O 08Apr2002                   

 ----------------------------------------------------------------------------- 
|                                                                             |
|           W    W    AA    RRRRR   N    N  II  N    N   GGGG   !!!           |
|           W    W   A  A   R    R  NN   N  II  NN   N  G    G  !!!           |
|           W    W  A    A  R    R  N N  N  II  N N  N  G       !!!           |
|           W WW W  AAAAAA  RRRRR   N  N N  II  N  N N  G  GGG   !            |
|           WW  WW  A    A  R   R   N   NN  II  N   NN  G    G                |
|           W    W  A    A  R    R  N    N  II  N    N   GGGG   !!!           |
|                                                                             |
|      For optimal performance we recommend to set                            |
|        NCORE= 4 - approx SQRT( number of cores)                             |
|      NCORE specifies how many cores store one orbital (NPAR=cpu/NCORE).     |
|      This setting can  greatly improve the performance of VASP for DFT.     |
|      The default,   NCORE=1            might be grossly inefficient         |
|      on modern multi-core architectures or massively parallel machines.     |
|      Do your own testing !!!!                                               |
|      Unfortunately you need to use the default for GW and RPA calculations. |
|      (for HF NCORE is supported but not extensively tested yet)             |
|                                                                             |
 ----------------------------------------------------------------------------- 

 POTCAR:    PAW_PBE Ge 05Jan2001                  
   VRHFIN =Ge: s2p2                                                             
   LEXCH  = PE                                                                  
   EATOM  =   104.9960 eV,    7.7170 Ry                                         
                                                                                
   TITEL  = PAW_PBE Ge 05Jan2001                                                
   LULTRA =        F    use ultrasoft PP ?                                      
   IUNSCR =        1    unscreen: 0-lin 1-nonlin 2-no                           
   RPACOR =    2.170    partial core radius                                     
   POMASS =   72.610; ZVAL   =    4.000    mass and valenz                      
   RCORE  =    2.300    outmost cutoff radius                                   
   RWIGS  =    2.300; RWIGS  =    1.217    wigner-seitz radius (au A)           
   ENMAX  =  173.807; ENMIN  =  130.355 eV                                      
   ICORE  =        3    local potential                                         
   LCOR   =        T    correct aug charges                                     
   LPAW   =        T    paw PP                                                  
   EAUG   =  385.843                                                            
   DEXC   =    0.000                                                            
   RMAX   =    2.342    core radius for proj-oper                               
   RAUG   =    1.300    factor for augmentation sphere                          
   RDEP   =    2.318    radius for radial grids                                 
   RDEPT  =    2.103    core radius for aug-charge                              
                                                                                
   Atomic configuration                                                         
   10 entries                                                                   
     n  l   j            E        occ.                                          
     1  0  0.50    -10959.8463   2.0000                                         
     2  0  0.50     -1371.6056   2.0000                                         
     2  1  1.50     -1198.4791   6.0000                                         
     3  0  0.50      -168.4733   2.0000                                         
     3  1  1.50      -115.6019   6.0000                                         
     3  2  2.50       -29.3106  10.0000                                         
     4  0  0.50       -11.7309   2.0000                                         
     4  1  0.50        -3.8952   2.0000                                         
     4  2  1.50        -4.0817   0.0000                                         
     4  3  2.50        -4.0817   0.0000                                         
   Description                                                                  
     l       E           TYP  RCUT    TYP  RCUT                                 
     0    -11.7309493     23  2.300                                             
     0     -7.4578696     23  2.300                                             
     1     -3.8952261     23  2.300                                             
     1      6.1178114     23  2.300                                             
     2     -4.0817478     23  2.300                                             
     3     -1.3605826      7  2.300                                             
  local pseudopotential read in
  partial core-charges read in
  partial kinetic energy density read in
  atomic valenz-charges read in
  non local Contribution for L=           0  read in
    real space projection operators read in
  non local Contribution for L=           0  read in
    real space projection operators read in
  non local Contribution for L=           1  read in
    real space projection operators read in
  non local Contribution for L=           1  read in
    real space projection operators read in
  non local Contribution for L=           2  read in
    real space projection operators read in
    PAW grid and wavefunctions read in
 
   number of l-projection  operators is LMAX  =           5
   number of lm-projection operators is LMMAX =          13
 
 POTCAR:    PAW_PBE O 08Apr2002                   
   VRHFIN =O: s2p4                                                              
   LEXCH  = PE                                                                  
   EATOM  =   432.3788 eV,   31.7789 Ry                                         
                                                                                
   TITEL  = PAW_PBE O 08Apr2002                                                 
   LULTRA =        F    use ultrasoft PP ?                                      
   IUNSCR =        1    unscreen: 0-lin 1-nonlin 2-no                           
   RPACOR =    1.200    partial core radius                                     
   POMASS =   16.000; ZVAL   =    6.000    mass and valenz                      
   RCORE  =    1.520    outmost cutoff radius                                   
   RWIGS  =    1.550; RWIGS  =    0.820    wigner-seitz radius (au A)           
   ENMAX  =  400.000; ENMIN  =  300.000 eV                                      
   ICORE  =        2    local potential                                         
   LCOR   =        T    correct aug charges                                     
   LPAW   =        T    paw PP                                                  
   EAUG   =  605.392                                                            
   DEXC   =    0.000                                                            
   RMAX   =    1.553    core radius for proj-oper                               
   RAUG   =    1.300    factor for augmentation sphere                          
   RDEP   =    1.550    radius for radial grids                                 
   RDEPT  =    1.329    core radius for aug-charge                              
                                                                                
   Atomic configuration                                                         
    4 entries                                                                   
     n  l   j            E        occ.                                          
     1  0  0.50      -514.6923   2.0000                                         
     2  0  0.50       -23.9615   2.0000                                         
     2  1  0.50        -9.0305   4.0000                                         
     3  2  1.50        -9.5241   0.0000                                         
   Description                                                                  
     l       E           TYP  RCUT    TYP  RCUT                                 
     0    -23.9615318     23  1.200                                             
     0     -9.5240782     23  1.200                                             
     1     -9.0304911     23  1.520                                             
     1      8.1634956     23  1.520                                             
     2     -9.5240782      7  1.500                                             
  local pseudopotential read in
  partial core-charges read in
  partial kinetic energy density read in
  kinetic energy density of atom read in
  atomic valenz-charges read in
  non local Contribution for L=           0  read in
    real space projection operators read in
  non local Contribution for L=           0  read in
    real space projection operators read in
  non local Contribution for L=           1  read in
    real space projection operators read in
  non local Contribution for L=           1  read in
    real space projection operators read in
    PAW grid and wavefunctions read in
 
   number of l-projection  operators is LMAX  =           4
   number of lm-projection operators is LMMAX =           8
 
  PAW_PBE Ge 05Jan2001                  :
 energy of atom  1       EATOM= -104.9960
 kinetic energy error for atom=    0.0002 (will be added to EATOM!!)
  PAW_PBE O 08Apr2002                   :
 energy of atom  2       EATOM= -432.3788
 kinetic energy error for atom=    0.0208 (will be added to EATOM!!)
 
 
 POSCAR: POSCAR_Ez                               
  positions in direct lattice
  velocities in cartesian coordinates
  No initial velocities read in
 exchange correlation table for  LEXCH =        8
   RHO(1)=    0.500       N(1)  =     2000
   RHO(2)=  100.500       N(2)  =     4000
 


--------------------------------------------------------------------------------------------------------


 ion  position               nearest neighbor table
   1  0.000  0.000  0.000-   5 1.88   6 1.88   5 1.88   6 1.88   3 1.90   4 1.90
   2  0.500  0.500  0.500-   3 1.88   4 1.88   3 1.88   4 1.88   5 1.90   6 1.90
   3  0.305  0.305  0.000-   2 1.88   2 1.88   1 1.90
   4  0.695  0.695  0.000-   2 1.88   2 1.88   1 1.90
   5  0.195  0.805  0.500-   1 1.88   1 1.88   2 1.90
   6  0.805  0.195  0.500-   1 1.88   1 1.88   2 1.90
 

IMPORTANT INFORMATION: All symmetrisations will be switched off!
NOSYMM: (Re-)initialisation of all symmetry stuff for point group C_1.

 
 
 KPOINTS: KPOINTS                                 

Automatic generation of k-mesh.
Space group operators:
 irot       det(A)        alpha          n_x          n_y          n_z        tau_x        tau_y        tau_z
    1     1.000000     0.000000     1.000000     0.000000     0.000000     0.000000     0.000000     0.000000
 
 Subroutine IBZKPT returns following result:
 ===========================================
 
 Found    365 irreducible k-points:
 
 Following reciprocal coordinates:
            Coordinates               Weight
  0.000000  0.000000  0.000000      1.000000
  0.111111  0.000000  0.000000      2.000000
  0.222222  0.000000 -0.000000      2.000000
  0.333333  0.000000 -0.000000      2.000000
  0.444444  0.000000 -0.000000      2.000000
  0.000000  0.111111  0.000000      2.000000
  0.111111  0.111111  0.000000      2.000000
  0.222222  0.111111 -0.000000      2.000000
  0.333333  0.111111 -0.000000      2.000000
  0.444444  0.111111 -0.000000      2.000000
 -0.444444  0.111111  0.000000      2.000000
 -0.333333  0.111111  0.000000      2.000000
 -0.222222  0.111111  0.000000      2.000000
 -0.111111  0.111111 -0.000000      2.000000
  0.000000  0.222222  0.000000      2.000000
  0.111111  0.222222  0.000000      2.000000
  0.222222  0.222222 -0.000000      2.000000
  0.333333  0.222222 -0.000000      2.000000
  0.444444  0.222222 -0.000000      2.000000
 -0.444444  0.222222  0.000000      2.000000
 -0.333333  0.222222  0.000000      2.000000
 -0.222222  0.222222  0.000000      2.000000
 -0.111111  0.222222 -0.000000      2.000000
  0.000000  0.333333  0.000000      2.000000
  0.111111  0.333333  0.000000      2.000000
  0.222222  0.333333 -0.000000      2.000000
  0.333333  0.333333 -0.000000      2.000000
  0.444444  0.333333 -0.000000      2.000000
 -0.444444  0.333333  0.000000      2.000000
 -0.333333  0.333333  0.000000      2.000000
 -0.222222  0.333333  0.000000      2.000000
 -0.111111  0.333333 -0.000000      2.000000
  0.000000  0.444444  0.000000      2.000000
  0.111111  0.444444  0.000000      2.000000
  0.222222  0.444444 -0.000000      2.000000
  0.333333  0.444444 -0.000000      2.000000
  0.444444  0.444444 -0.000000      2.000000
 -0.444444  0.444444  0.000000      2.000000
 -0.333333  0.444444  0.000000      2.000000
 -0.222222  0.444444  0.000000      2.000000
 -0.111111  0.444444 -0.000000      2.000000
  0.000000  0.000000  0.111111      2.000000
  0.111111  0.000000  0.111111      2.000000
  0.222222  0.000000  0.111111      2.000000
  0.333333  0.000000  0.111111      2.000000
  0.444444  0.000000  0.111111      2.000000
 -0.444444  0.000000  0.111111      2.000000
 -0.333333  0.000000  0.111111      2.000000
 -0.222222  0.000000  0.111111      2.000000
 -0.111111  0.000000  0.111111      2.000000
  0.000000  0.111111  0.111111      2.000000
  0.111111  0.111111  0.111111      2.000000
  0.222222  0.111111  0.111111      2.000000
  0.333333  0.111111  0.111111      2.000000
  0.444444  0.111111  0.111111      2.000000
 -0.444444  0.111111  0.111111      2.000000
 -0.333333  0.111111  0.111111      2.000000
 -0.222222  0.111111  0.111111      2.000000
 -0.111111  0.111111  0.111111      2.000000
  0.000000  0.222222  0.111111      2.000000
  0.111111  0.222222  0.111111      2.000000
  0.222222  0.222222  0.111111      2.000000
  0.333333  0.222222  0.111111      2.000000
  0.444444  0.222222  0.111111      2.000000
 -0.444444  0.222222  0.111111      2.000000
 -0.333333  0.222222  0.111111      2.000000
 -0.222222  0.222222  0.111111      2.000000
 -0.111111  0.222222  0.111111      2.000000
  0.000000  0.333333  0.111111      2.000000
  0.111111  0.333333  0.111111      2.000000
  0.222222  0.333333  0.111111      2.000000
  0.333333  0.333333  0.111111      2.000000
  0.444444  0.333333  0.111111      2.000000
 -0.444444  0.333333  0.111111      2.000000
 -0.333333  0.333333  0.111111      2.000000
 -0.222222  0.333333  0.111111      2.000000
 -0.111111  0.333333  0.111111      2.000000
  0.000000  0.444444  0.111111      2.000000
  0.111111  0.444444  0.111111      2.000000
  0.222222  0.444444  0.111111      2.000000
  0.333333  0.444444  0.111111      2.000000
  0.444444  0.444444  0.111111      2.000000
 -0.444444  0.444444  0.111111      2.000000
 -0.333333  0.444444  0.111111      2.000000
 -0.222222  0.444444  0.111111      2.000000
 -0.111111  0.444444  0.111111      2.000000
  0.000000 -0.444444  0.111111      2.000000
  0.111111 -0.444444  0.111111      2.000000
  0.222222 -0.444444  0.111111      2.000000
  0.333333 -0.444444  0.111111      2.000000
  0.444444 -0.444444  0.111111      2.000000
 -0.444444 -0.444444  0.111111      2.000000
 -0.333333 -0.444444  0.111111      2.000000
 -0.222222 -0.444444  0.111111      2.000000
 -0.111111 -0.444444  0.111111      2.000000
  0.000000 -0.333333  0.111111      2.000000
  0.111111 -0.333333  0.111111      2.000000
  0.222222 -0.333333  0.111111      2.000000
  0.333333 -0.333333  0.111111      2.000000
  0.444444 -0.333333  0.111111      2.000000
 -0.444444 -0.333333  0.111111      2.000000
 -0.333333 -0.333333  0.111111      2.000000
 -0.222222 -0.333333  0.111111      2.000000
 -0.111111 -0.333333  0.111111      2.000000
  0.000000 -0.222222  0.111111      2.000000
  0.111111 -0.222222  0.111111      2.000000
  0.222222 -0.222222  0.111111      2.000000
  0.333333 -0.222222  0.111111      2.000000
  0.444444 -0.222222  0.111111      2.000000
 -0.444444 -0.222222  0.111111      2.000000
 -0.333333 -0.222222  0.111111      2.000000
 -0.222222 -0.222222  0.111111      2.000000
 -0.111111 -0.222222  0.111111      2.000000
  0.000000 -0.111111  0.111111      2.000000
  0.111111 -0.111111  0.111111      2.000000
  0.222222 -0.111111  0.111111      2.000000
  0.333333 -0.111111  0.111111      2.000000
  0.444444 -0.111111  0.111111      2.000000
 -0.444444 -0.111111  0.111111      2.000000
 -0.333333 -0.111111  0.111111      2.000000
 -0.222222 -0.111111  0.111111      2.000000
 -0.111111 -0.111111  0.111111      2.000000
  0.000000  0.000000  0.222222      2.000000
  0.111111  0.000000  0.222222      2.000000
  0.222222  0.000000  0.222222      2.000000
  0.333333  0.000000  0.222222      2.000000
  0.444444  0.000000  0.222222      2.000000
 -0.444444  0.000000  0.222222      2.000000
 -0.333333  0.000000  0.222222      2.000000
 -0.222222  0.000000  0.222222      2.000000
 -0.111111  0.000000  0.222222      2.000000
  0.000000  0.111111  0.222222      2.000000
  0.111111  0.111111  0.222222      2.000000
  0.222222  0.111111  0.222222      2.000000
  0.333333  0.111111  0.222222      2.000000
  0.444444  0.111111  0.222222      2.000000
 -0.444444  0.111111  0.222222      2.000000
 -0.333333  0.111111  0.222222      2.000000
 -0.222222  0.111111  0.222222      2.000000
 -0.111111  0.111111  0.222222      2.000000
  0.000000  0.222222  0.222222      2.000000
  0.111111  0.222222  0.222222      2.000000
  0.222222  0.222222  0.222222      2.000000
  0.333333  0.222222  0.222222      2.000000
  0.444444  0.222222  0.222222      2.000000
 -0.444444  0.222222  0.222222      2.000000
 -0.333333  0.222222  0.222222      2.000000
 -0.222222  0.222222  0.222222      2.000000
 -0.111111  0.222222  0.222222      2.000000
  0.000000  0.333333  0.222222      2.000000
  0.111111  0.333333  0.222222      2.000000
  0.222222  0.333333  0.222222      2.000000
  0.333333  0.333333  0.222222      2.000000
  0.444444  0.333333  0.222222      2.000000
 -0.444444  0.333333  0.222222      2.000000
 -0.333333  0.333333  0.222222      2.000000
 -0.222222  0.333333  0.222222      2.000000
 -0.111111  0.333333  0.222222      2.000000
  0.000000  0.444444  0.222222      2.000000
  0.111111  0.444444  0.222222      2.000000
  0.222222  0.444444  0.222222      2.000000
  0.333333  0.444444  0.222222      2.000000
  0.444444  0.444444  0.222222      2.000000
 -0.444444  0.444444  0.222222      2.000000
 -0.333333  0.444444  0.222222      2.000000
 -0.222222  0.444444  0.222222      2.000000
 -0.111111  0.444444  0.222222      2.000000
  0.000000 -0.444444  0.222222      2.000000
  0.111111 -0.444444  0.222222      2.000000
  0.222222 -0.444444  0.222222      2.000000
  0.333333 -0.444444  0.222222      2.000000
  0.444444 -0.444444  0.222222      2.000000
 -0.444444 -0.444444  0.222222      2.000000
 -0.333333 -0.444444  0.222222      2.000000
 -0.222222 -0.444444  0.222222      2.000000
 -0.111111 -0.444444  0.222222      2.000000
  0.000000 -0.333333  0.222222      2.000000
  0.111111 -0.333333  0.222222      2.000000
  0.222222 -0.333333  0.222222      2.000000
  0.333333 -0.333333  0.222222      2.000000
  0.444444 -0.333333  0.222222      2.000000
 -0.444444 -0.333333  0.222222      2.000000
 -0.333333 -0.333333  0.222222      2.000000
 -0.222222 -0.333333  0.222222      2.000000
 -0.111111 -0.333333  0.222222      2.000000
  0.000000 -0.222222  0.222222      2.000000
  0.111111 -0.222222  0.222222      2.000000
  0.222222 -0.222222  0.222222      2.000000
  0.333333 -0.222222  0.222222      2.000000
  0.444444 -0.222222  0.222222      2.000000
 -0.444444 -0.222222  0.222222      2.000000
 -0.333333 -0.222222  0.222222      2.000000
 -0.222222 -0.222222  0.222222      2.000000
 -0.111111 -0.222222  0.222222      2.000000
  0.000000 -0.111111  0.222222      2.000000
  0.111111 -0.111111  0.222222      2.000000
  0.222222 -0.111111  0.222222      2.000000
  0.333333 -0.111111  0.222222      2.000000
  0.444444 -0.111111  0.222222      2.000000
 -0.444444 -0.111111  0.222222      2.000000
 -0.333333 -0.111111  0.222222      2.000000
 -0.222222 -0.111111  0.222222      2.000000
 -0.111111 -0.111111  0.222222      2.000000
 -0.000000  0.000000  0.333333      2.000000
  0.111111  0.000000  0.333333      2.000000
  0.222222  0.000000  0.333333      2.000000
  0.333333  0.000000  0.333333      2.000000
  0.444444  0.000000  0.333333      2.000000
 -0.444444  0.000000  0.333333      2.000000
 -0.333333  0.000000  0.333333      2.000000
 -0.222222  0.000000  0.333333      2.000000
 -0.111111  0.000000  0.333333      2.000000
 -0.000000  0.111111  0.333333      2.000000
  0.111111  0.111111  0.333333      2.000000
  0.222222  0.111111  0.333333      2.000000
  0.333333  0.111111  0.333333      2.000000
  0.444444  0.111111  0.333333      2.000000
 -0.444444  0.111111  0.333333      2.000000
 -0.333333  0.111111  0.333333      2.000000
 -0.222222  0.111111  0.333333      2.000000
 -0.111111  0.111111  0.333333      2.000000
 -0.000000  0.222222  0.333333      2.000000
  0.111111  0.222222  0.333333      2.000000
  0.222222  0.222222  0.333333      2.000000
  0.333333  0.222222  0.333333      2.000000
  0.444444  0.222222  0.333333      2.000000
 -0.444444  0.222222  0.333333      2.000000
 -0.333333  0.222222  0.333333      2.000000
 -0.222222  0.222222  0.333333      2.000000
 -0.111111  0.222222  0.333333      2.000000
 -0.000000  0.333333  0.333333      2.000000
  0.111111  0.333333  0.333333      2.000000
  0.222222  0.333333  0.333333      2.000000
  0.333333  0.333333  0.333333      2.000000
  0.444444  0.333333  0.333333      2.000000
 -0.444444  0.333333  0.333333      2.000000
 -0.333333  0.333333  0.333333      2.000000
 -0.222222  0.333333  0.333333      2.000000
 -0.111111  0.333333  0.333333      2.000000
 -0.000000  0.444444  0.333333      2.000000
  0.111111  0.444444  0.333333      2.000000
  0.222222  0.444444  0.333333      2.000000
  0.333333  0.444444  0.333333      2.000000
  0.444444  0.444444  0.333333      2.000000
 -0.444444  0.444444  0.333333      2.000000
 -0.333333  0.444444  0.333333      2.000000
 -0.222222  0.444444  0.333333      2.000000
 -0.111111  0.444444  0.333333      2.000000
 -0.000000 -0.444444  0.333333      2.000000
  0.111111 -0.444444  0.333333      2.000000
  0.222222 -0.444444  0.333333      2.000000
  0.333333 -0.444444  0.333333      2.000000
  0.444444 -0.444444  0.333333      2.000000
 -0.444444 -0.444444  0.333333      2.000000
 -0.333333 -0.444444  0.333333      2.000000
 -0.222222 -0.444444  0.333333      2.000000
 -0.111111 -0.444444  0.333333      2.000000
 -0.000000 -0.333333  0.333333      2.000000
  0.111111 -0.333333  0.333333      2.000000
  0.222222 -0.333333  0.333333      2.000000
  0.333333 -0.333333  0.333333      2.000000
  0.444444 -0.333333  0.333333      2.000000
 -0.444444 -0.333333  0.333333      2.000000
 -0.333333 -0.333333  0.333333      2.000000
 -0.222222 -0.333333  0.333333      2.000000
 -0.111111 -0.333333  0.333333      2.000000
 -0.000000 -0.222222  0.333333      2.000000
  0.111111 -0.222222  0.333333      2.000000
  0.222222 -0.222222  0.333333      2.000000
  0.333333 -0.222222  0.333333      2.000000
  0.444444 -0.222222  0.333333      2.000000
 -0.444444 -0.222222  0.333333      2.000000
 -0.333333 -0.222222  0.333333      2.000000
 -0.222222 -0.222222  0.333333      2.000000
 -0.111111 -0.222222  0.333333      2.000000
 -0.000000 -0.111111  0.333333      2.000000
  0.111111 -0.111111  0.333333      2.000000
  0.222222 -0.111111  0.333333      2.000000
  0.333333 -0.111111  0.333333      2.000000
  0.444444 -0.111111  0.333333      2.000000
 -0.444444 -0.111111  0.333333      2.000000
 -0.333333 -0.111111  0.333333      2.000000
 -0.222222 -0.111111  0.333333      2.000000
 -0.111111 -0.111111  0.333333      2.000000
  0.000000  0.000000  0.444444      2.000000
  0.111111  0.000000  0.444444      2.000000
  0.222222  0.000000  0.444444      2.000000
  0.333333  0.000000  0.444444      2.000000
  0.444444  0.000000  0.444444      2.000000
 -0.444444  0.000000  0.444444      2.000000
 -0.333333  0.000000  0.444444      2.000000
 -0.222222  0.000000  0.444444      2.000000
 -0.111111  0.000000  0.444444      2.000000
  0.000000  0.111111  0.444444      2.000000
  0.111111  0.111111  0.444444      2.000000
  0.222222  0.111111  0.444444      2.000000
  0.333333  0.111111  0.444444      2.000000
  0.444444  0.111111  0.444444      2.000000
 -0.444444  0.111111  0.444444      2.000000
 -0.333333  0.111111  0.444444      2.000000
 -0.222222  0.111111  0.444444      2.000000
 -0.111111  0.111111  0.444444      2.000000
  0.000000  0.222222  0.444444      2.000000
  0.111111  0.222222  0.444444      2.000000
  0.222222  0.222222  0.444444      2.000000
  0.333333  0.222222  0.444444      2.000000
  0.444444  0.222222  0.444444      2.000000
 -0.444444  0.222222  0.444444      2.000000
 -0.333333  0.222222  0.444444      2.000000
 -0.222222  0.222222  0.444444      2.000000
 -0.111111  0.222222  0.444444      2.000000
  0.000000  0.333333  0.444444      2.000000
  0.111111  0.333333  0.444444      2.000000
  0.222222  0.333333  0.444444      2.000000
  0.333333  0.333333  0.444444      2.000000
  0.444444  0.333333  0.444444      2.000000
 -0.444444  0.333333  0.444444      2.000000
 -0.333333  0.333333  0.444444      2.000000
 -0.222222  0.333333  0.444444      2.000000
 -0.111111  0.333333  0.444444      2.000000
  0.000000  0.444444  0.444444      2.000000
  0.111111  0.444444  0.444444      2.000000
  0.222222  0.444444  0.444444      2.000000
  0.333333  0.444444  0.444444      2.000000
  0.444444  0.444444  0.444444      2.000000
 -0.444444  0.444444  0.444444      2.000000
 -0.333333  0.444444  0.444444      2.000000
 -0.222222  0.444444  0.444444      2.000000
 -0.111111  0.444444  0.444444      2.000000
  0.000000 -0.444444  0.444444      2.000000
  0.111111 -0.444444  0.444444      2.000000
  0.222222 -0.444444  0.444444      2.000000
  0.333333 -0.444444  0.444444      2.000000
  0.444444 -0.444444  0.444444      2.000000
 -0.444444 -0.444444  0.444444      2.000000
 -0.333333 -0.444444  0.444444      2.000000
 -0.222222 -0.444444  0.444444      2.000000
 -0.111111 -0.444444  0.444444      2.000000
  0.000000 -0.333333  0.444444      2.000000
  0.111111 -0.333333  0.444444      2.000000
  0.222222 -0.333333  0.444444      2.000000
  0.333333 -0.333333  0.444444      2.000000
  0.444444 -0.333333  0.444444      2.000000
 -0.444444 -0.333333  0.444444      2.000000
 -0.333333 -0.333333  0.444444      2.000000
 -0.222222 -0.333333  0.444444      2.000000
 -0.111111 -0.333333  0.444444      2.000000
  0.000000 -0.222222  0.444444      2.000000
  0.111111 -0.222222  0.444444      2.000000
  0.222222 -0.222222  0.444444      2.000000
  0.333333 -0.222222  0.444444      2.000000
  0.444444 -0.222222  0.444444      2.000000
 -0.444444 -0.222222  0.444444      2.000000
 -0.333333 -0.222222  0.444444      2.000000
 -0.222222 -0.222222  0.444444      2.000000
 -0.111111 -0.222222  0.444444      2.000000
  0.000000 -0.111111  0.444444      2.000000
  0.111111 -0.111111  0.444444      2.000000
  0.222222 -0.111111  0.444444      2.000000
  0.333333 -0.111111  0.444444      2.000000
  0.444444 -0.111111  0.444444      2.000000
 -0.444444 -0.111111  0.444444      2.000000
 -0.333333 -0.111111  0.444444      2.000000
 -0.222222 -0.111111  0.444444      2.000000
 -0.111111 -0.111111  0.444444      2.000000
 
 Following cartesian coordinates:
            Coordinates               Weight
  0.000000  0.000000  0.000000      1.000000
  0.017830  0.000000  0.017830      2.000000
  0.035659  0.000000  0.035659      2.000000
  0.053489  0.000000  0.053489      2.000000
  0.071319  0.000000  0.071319      2.000000
  0.000000  0.025215  0.000000      2.000000
  0.017830  0.025215  0.017830      2.000000
  0.035659  0.025215  0.035659      2.000000
  0.053489  0.025215  0.053489      2.000000
  0.071319  0.025215  0.071319      2.000000
 -0.071319  0.025215 -0.071319      2.000000
 -0.053489  0.025215 -0.053489      2.000000
 -0.035659  0.025215 -0.035659      2.000000
 -0.017830  0.025215 -0.017830      2.000000
  0.000000  0.050430  0.000000      2.000000
  0.017830  0.050430  0.017830      2.000000
  0.035659  0.050430  0.035659      2.000000
  0.053489  0.050430  0.053489      2.000000
  0.071319  0.050430  0.071319      2.000000
 -0.071319  0.050430 -0.071319      2.000000
 -0.053489  0.050430 -0.053489      2.000000
 -0.035659  0.050430 -0.035659      2.000000
 -0.017830  0.050430 -0.017830      2.000000
  0.000000  0.075645  0.000000      2.000000
  0.017830  0.075645  0.017830      2.000000
  0.035659  0.075645  0.035659      2.000000
  0.053489  0.075645  0.053489      2.000000
  0.071319  0.075645  0.071319      2.000000
 -0.071319  0.075645 -0.071319      2.000000
 -0.053489  0.075645 -0.053489      2.000000
 -0.035659  0.075645 -0.035659      2.000000
 -0.017830  0.075645 -0.017830      2.000000
  0.000000  0.100860  0.000000      2.000000
  0.017830  0.100860  0.017830      2.000000
  0.035659  0.100860  0.035659      2.000000
  0.053489  0.100860  0.053489      2.000000
  0.071319  0.100860  0.071319      2.000000
 -0.071319  0.100860 -0.071319      2.000000
 -0.053489  0.100860 -0.053489      2.000000
 -0.035659  0.100860 -0.035659      2.000000
 -0.017830  0.100860 -0.017830      2.000000
 -0.027453  0.000000  0.027453      2.000000
 -0.009624  0.000000  0.045283      2.000000
  0.008206  0.000000  0.063113      2.000000
  0.026036  0.000000  0.080942      2.000000
  0.043865  0.000000  0.098772      2.000000
 -0.098772  0.000000 -0.043865      2.000000
 -0.080942  0.000000 -0.026036      2.000000
 -0.063113  0.000000 -0.008206      2.000000
 -0.045283  0.000000  0.009624      2.000000
 -0.027453  0.025215  0.027453      2.000000
 -0.009624  0.025215  0.045283      2.000000
  0.008206  0.025215  0.063113      2.000000
  0.026036  0.025215  0.080942      2.000000
  0.043865  0.025215  0.098772      2.000000
 -0.098772  0.025215 -0.043865      2.000000
 -0.080942  0.025215 -0.026036      2.000000
 -0.063113  0.025215 -0.008206      2.000000
 -0.045283  0.025215  0.009624      2.000000
 -0.027453  0.050430  0.027453      2.000000
 -0.009624  0.050430  0.045283      2.000000
  0.008206  0.050430  0.063113      2.000000
  0.026036  0.050430  0.080942      2.000000
  0.043865  0.050430  0.098772      2.000000
 -0.098772  0.050430 -0.043865      2.000000
 -0.080942  0.050430 -0.026036      2.000000
 -0.063113  0.050430 -0.008206      2.000000
 -0.045283  0.050430  0.009624      2.000000
 -0.027453  0.075645  0.027453      2.000000
 -0.009624  0.075645  0.045283      2.000000
  0.008206  0.075645  0.063113      2.000000
  0.026036  0.075645  0.080942      2.000000
  0.043865  0.075645  0.098772      2.000000
 -0.098772  0.075645 -0.043865      2.000000
 -0.080942  0.075645 -0.026036      2.000000
 -0.063113  0.075645 -0.008206      2.000000
 -0.045283  0.075645  0.009624      2.000000
 -0.027453  0.100860  0.027453      2.000000
 -0.009624  0.100860  0.045283      2.000000
  0.008206  0.100860  0.063113      2.000000
  0.026036  0.100860  0.080942      2.000000
  0.043865  0.100860  0.098772      2.000000
 -0.098772  0.100860 -0.043865      2.000000
 -0.080942  0.100860 -0.026036      2.000000
 -0.063113  0.100860 -0.008206      2.000000
 -0.045283  0.100860  0.009624      2.000000
 -0.027453 -0.100860  0.027453      2.000000
 -0.009624 -0.100860  0.045283      2.000000
  0.008206 -0.100860  0.063113      2.000000
  0.026036 -0.100860  0.080942      2.000000
  0.043865 -0.100860  0.098772      2.000000
 -0.098772 -0.100860 -0.043865      2.000000
 -0.080942 -0.100860 -0.026036      2.000000
 -0.063113 -0.100860 -0.008206      2.000000
 -0.045283 -0.100860  0.009624      2.000000
 -0.027453 -0.075645  0.027453      2.000000
 -0.009624 -0.075645  0.045283      2.000000
  0.008206 -0.075645  0.063113      2.000000
  0.026036 -0.075645  0.080942      2.000000
  0.043865 -0.075645  0.098772      2.000000
 -0.098772 -0.075645 -0.043865      2.000000
 -0.080942 -0.075645 -0.026036      2.000000
 -0.063113 -0.075645 -0.008206      2.000000
 -0.045283 -0.075645  0.009624      2.000000
 -0.027453 -0.050430  0.027453      2.000000
 -0.009624 -0.050430  0.045283      2.000000
  0.008206 -0.050430  0.063113      2.000000
  0.026036 -0.050430  0.080942      2.000000
  0.043865 -0.050430  0.098772      2.000000
 -0.098772 -0.050430 -0.043865      2.000000
 -0.080942 -0.050430 -0.026036      2.000000
 -0.063113 -0.050430 -0.008206      2.000000
 -0.045283 -0.050430  0.009624      2.000000
 -0.027453 -0.025215  0.027453      2.000000
 -0.009624 -0.025215  0.045283      2.000000
  0.008206 -0.025215  0.063113      2.000000
  0.026036 -0.025215  0.080942      2.000000
  0.043865 -0.025215  0.098772      2.000000
 -0.098772 -0.025215 -0.043865      2.000000
 -0.080942 -0.025215 -0.026036      2.000000
 -0.063113 -0.025215 -0.008206      2.000000
 -0.045283 -0.025215  0.009624      2.000000
 -0.054907  0.000000  0.054907      2.000000
 -0.037077  0.000000  0.072736      2.000000
 -0.019247  0.000000  0.090566      2.000000
 -0.001418  0.000000  0.108395      2.000000
  0.016412  0.000000  0.126225      2.000000
 -0.126225  0.000000 -0.016412      2.000000
 -0.108395  0.000000  0.001418      2.000000
 -0.090566  0.000000  0.019247      2.000000
 -0.072736  0.000000  0.037077      2.000000
 -0.054907  0.025215  0.054907      2.000000
 -0.037077  0.025215  0.072736      2.000000
 -0.019247  0.025215  0.090566      2.000000
 -0.001418  0.025215  0.108395      2.000000
  0.016412  0.025215  0.126225      2.000000
 -0.126225  0.025215 -0.016412      2.000000
 -0.108395  0.025215  0.001418      2.000000
 -0.090566  0.025215  0.019247      2.000000
 -0.072736  0.025215  0.037077      2.000000
 -0.054907  0.050430  0.054907      2.000000
 -0.037077  0.050430  0.072736      2.000000
 -0.019247  0.050430  0.090566      2.000000
 -0.001418  0.050430  0.108395      2.000000
  0.016412  0.050430  0.126225      2.000000
 -0.126225  0.050430 -0.016412      2.000000
 -0.108395  0.050430  0.001418      2.000000
 -0.090566  0.050430  0.019247      2.000000
 -0.072736  0.050430  0.037077      2.000000
 -0.054907  0.075645  0.054907      2.000000
 -0.037077  0.075645  0.072736      2.000000
 -0.019247  0.075645  0.090566      2.000000
 -0.001418  0.075645  0.108395      2.000000
  0.016412  0.075645  0.126225      2.000000
 -0.126225  0.075645 -0.016412      2.000000
 -0.108395  0.075645  0.001418      2.000000
 -0.090566  0.075645  0.019247      2.000000
 -0.072736  0.075645  0.037077      2.000000
 -0.054907  0.100860  0.054907      2.000000
 -0.037077  0.100860  0.072736      2.000000
 -0.019247  0.100860  0.090566      2.000000
 -0.001418  0.100860  0.108395      2.000000
  0.016412  0.100860  0.126225      2.000000
 -0.126225  0.100860 -0.016412      2.000000
 -0.108395  0.100860  0.001418      2.000000
 -0.090566  0.100860  0.019247      2.000000
 -0.072736  0.100860  0.037077      2.000000
 -0.054907 -0.100860  0.054907      2.000000
 -0.037077 -0.100860  0.072736      2.000000
 -0.019247 -0.100860  0.090566      2.000000
 -0.001418 -0.100860  0.108395      2.000000
  0.016412 -0.100860  0.126225      2.000000
 -0.126225 -0.100860 -0.016412      2.000000
 -0.108395 -0.100860  0.001418      2.000000
 -0.090566 -0.100860  0.019247      2.000000
 -0.072736 -0.100860  0.037077      2.000000
 -0.054907 -0.075645  0.054907      2.000000
 -0.037077 -0.075645  0.072736      2.000000
 -0.019247 -0.075645  0.090566      2.000000
 -0.001418 -0.075645  0.108395      2.000000
  0.016412 -0.075645  0.126225      2.000000
 -0.126225 -0.075645 -0.016412      2.000000
 -0.108395 -0.075645  0.001418      2.000000
 -0.090566 -0.075645  0.019247      2.000000
 -0.072736 -0.075645  0.037077      2.000000
 -0.054907 -0.050430  0.054907      2.000000
 -0.037077 -0.050430  0.072736      2.000000
 -0.019247 -0.050430  0.090566      2.000000
 -0.001418 -0.050430  0.108395      2.000000
  0.016412 -0.050430  0.126225      2.000000
 -0.126225 -0.050430 -0.016412      2.000000
 -0.108395 -0.050430  0.001418      2.000000
 -0.090566 -0.050430  0.019247      2.000000
 -0.072736 -0.050430  0.037077      2.000000
 -0.054907 -0.025215  0.054907      2.000000
 -0.037077 -0.025215  0.072736      2.000000
 -0.019247 -0.025215  0.090566      2.000000
 -0.001418 -0.025215  0.108395      2.000000
  0.016412 -0.025215  0.126225      2.000000
 -0.126225 -0.025215 -0.016412      2.000000
 -0.108395 -0.025215  0.001418      2.000000
 -0.090566 -0.025215  0.019247      2.000000
 -0.072736 -0.025215  0.037077      2.000000
 -0.082360  0.000000  0.082360      2.000000
 -0.064530  0.000000  0.100189      2.000000
 -0.046701  0.000000  0.118019      2.000000
 -0.028871  0.000000  0.135849      2.000000
 -0.011041  0.000000  0.153678      2.000000
 -0.153678  0.000000  0.011041      2.000000
 -0.135849  0.000000  0.028871      2.000000
 -0.118019  0.000000  0.046701      2.000000
 -0.100189  0.000000  0.064530      2.000000
 -0.082360  0.025215  0.082360      2.000000
 -0.064530  0.025215  0.100189      2.000000
 -0.046701  0.025215  0.118019      2.000000
 -0.028871  0.025215  0.135849      2.000000
 -0.011041  0.025215  0.153678      2.000000
 -0.153678  0.025215  0.011041      2.000000
 -0.135849  0.025215  0.028871      2.000000
 -0.118019  0.025215  0.046701      2.000000
 -0.100189  0.025215  0.064530      2.000000
 -0.082360  0.050430  0.082360      2.000000
 -0.064530  0.050430  0.100189      2.000000
 -0.046701  0.050430  0.118019      2.000000
 -0.028871  0.050430  0.135849      2.000000
 -0.011041  0.050430  0.153678      2.000000
 -0.153678  0.050430  0.011041      2.000000
 -0.135849  0.050430  0.028871      2.000000
 -0.118019  0.050430  0.046701      2.000000
 -0.100189  0.050430  0.064530      2.000000
 -0.082360  0.075645  0.082360      2.000000
 -0.064530  0.075645  0.100189      2.000000
 -0.046701  0.075645  0.118019      2.000000
 -0.028871  0.075645  0.135849      2.000000
 -0.011041  0.075645  0.153678      2.000000
 -0.153678  0.075645  0.011041      2.000000
 -0.135849  0.075645  0.028871      2.000000
 -0.118019  0.075645  0.046701      2.000000
 -0.100189  0.075645  0.064530      2.000000
 -0.082360  0.100860  0.082360      2.000000
 -0.064530  0.100860  0.100189      2.000000
 -0.046701  0.100860  0.118019      2.000000
 -0.028871  0.100860  0.135849      2.000000
 -0.011041  0.100860  0.153678      2.000000
 -0.153678  0.100860  0.011041      2.000000
 -0.135849  0.100860  0.028871      2.000000
 -0.118019  0.100860  0.046701      2.000000
 -0.100189  0.100860  0.064530      2.000000
 -0.082360 -0.100860  0.082360      2.000000
 -0.064530 -0.100860  0.100189      2.000000
 -0.046701 -0.100860  0.118019      2.000000
 -0.028871 -0.100860  0.135849      2.000000
 -0.011041 -0.100860  0.153678      2.000000
 -0.153678 -0.100860  0.011041      2.000000
 -0.135849 -0.100860  0.028871      2.000000
 -0.118019 -0.100860  0.046701      2.000000
 -0.100189 -0.100860  0.064530      2.000000
 -0.082360 -0.075645  0.082360      2.000000
 -0.064530 -0.075645  0.100189      2.000000
 -0.046701 -0.075645  0.118019      2.000000
 -0.028871 -0.075645  0.135849      2.000000
 -0.011041 -0.075645  0.153678      2.000000
 -0.153678 -0.075645  0.011041      2.000000
 -0.135849 -0.075645  0.028871      2.000000
 -0.118019 -0.075645  0.046701      2.000000
 -0.100189 -0.075645  0.064530      2.000000
 -0.082360 -0.050430  0.082360      2.000000
 -0.064530 -0.050430  0.100189      2.000000
 -0.046701 -0.050430  0.118019      2.000000
 -0.028871 -0.050430  0.135849      2.000000
 -0.011041 -0.050430  0.153678      2.000000
 -0.153678 -0.050430  0.011041      2.000000
 -0.135849 -0.050430  0.028871      2.000000
 -0.118019 -0.050430  0.046701      2.000000
 -0.100189 -0.050430  0.064530      2.000000
 -0.082360 -0.025215  0.082360      2.000000
 -0.064530 -0.025215  0.100189      2.000000
 -0.046701 -0.025215  0.118019      2.000000
 -0.028871 -0.025215  0.135849      2.000000
 -0.011041 -0.025215  0.153678      2.000000
 -0.153678 -0.025215  0.011041      2.000000
 -0.135849 -0.025215  0.028871      2.000000
 -0.118019 -0.025215  0.046701      2.000000
 -0.100189 -0.025215  0.064530      2.000000
 -0.109813  0.000000  0.109813      2.000000
 -0.091983  0.000000  0.127643      2.000000
 -0.074154  0.000000  0.145472      2.000000
 -0.056324  0.000000  0.163302      2.000000
 -0.038494  0.000000  0.181132      2.000000
 -0.181132  0.000000  0.038494      2.000000
 -0.163302  0.000000  0.056324      2.000000
 -0.145472  0.000000  0.074154      2.000000
 -0.127643  0.000000  0.091983      2.000000
 -0.109813  0.025215  0.109813      2.000000
 -0.091983  0.025215  0.127643      2.000000
 -0.074154  0.025215  0.145472      2.000000
 -0.056324  0.025215  0.163302      2.000000
 -0.038494  0.025215  0.181132      2.000000
 -0.181132  0.025215  0.038494      2.000000
 -0.163302  0.025215  0.056324      2.000000
 -0.145472  0.025215  0.074154      2.000000
 -0.127643  0.025215  0.091983      2.000000
 -0.109813  0.050430  0.109813      2.000000
 -0.091983  0.050430  0.127643      2.000000
 -0.074154  0.050430  0.145472      2.000000
 -0.056324  0.050430  0.163302      2.000000
 -0.038494  0.050430  0.181132      2.000000
 -0.181132  0.050430  0.038494      2.000000
 -0.163302  0.050430  0.056324      2.000000
 -0.145472  0.050430  0.074154      2.000000
 -0.127643  0.050430  0.091983      2.000000
 -0.109813  0.075645  0.109813      2.000000
 -0.091983  0.075645  0.127643      2.000000
 -0.074154  0.075645  0.145472      2.000000
 -0.056324  0.075645  0.163302      2.000000
 -0.038494  0.075645  0.181132      2.000000
 -0.181132  0.075645  0.038494      2.000000
 -0.163302  0.075645  0.056324      2.000000
 -0.145472  0.075645  0.074154      2.000000
 -0.127643  0.075645  0.091983      2.000000
 -0.109813  0.100860  0.109813      2.000000
 -0.091983  0.100860  0.127643      2.000000
 -0.074154  0.100860  0.145472      2.000000
 -0.056324  0.100860  0.163302      2.000000
 -0.038494  0.100860  0.181132      2.000000
 -0.181132  0.100860  0.038494      2.000000
 -0.163302  0.100860  0.056324      2.000000
 -0.145472  0.100860  0.074154      2.000000
 -0.127643  0.100860  0.091983      2.000000
 -0.109813 -0.100860  0.109813      2.000000
 -0.091983 -0.100860  0.127643      2.000000
 -0.074154 -0.100860  0.145472      2.000000
 -0.056324 -0.100860  0.163302      2.000000
 -0.038494 -0.100860  0.181132      2.000000
 -0.181132 -0.100860  0.038494      2.000000
 -0.163302 -0.100860  0.056324      2.000000
 -0.145472 -0.100860  0.074154      2.000000
 -0.127643 -0.100860  0.091983      2.000000
 -0.109813 -0.075645  0.109813      2.000000
 -0.091983 -0.075645  0.127643      2.000000
 -0.074154 -0.075645  0.145472      2.000000
 -0.056324 -0.075645  0.163302      2.000000
 -0.038494 -0.075645  0.181132      2.000000
 -0.181132 -0.075645  0.038494      2.000000
 -0.163302 -0.075645  0.056324      2.000000
 -0.145472 -0.075645  0.074154      2.000000
 -0.127643 -0.075645  0.091983      2.000000
 -0.109813 -0.050430  0.109813      2.000000
 -0.091983 -0.050430  0.127643      2.000000
 -0.074154 -0.050430  0.145472      2.000000
 -0.056324 -0.050430  0.163302      2.000000
 -0.038494 -0.050430  0.181132      2.000000
 -0.181132 -0.050430  0.038494      2.000000
 -0.163302 -0.050430  0.056324      2.000000
 -0.145472 -0.050430  0.074154      2.000000
 -0.127643 -0.050430  0.091983      2.000000
 -0.109813 -0.025215  0.109813      2.000000
 -0.091983 -0.025215  0.127643      2.000000
 -0.074154 -0.025215  0.145472      2.000000
 -0.056324 -0.025215  0.163302      2.000000
 -0.038494 -0.025215  0.181132      2.000000
 -0.181132 -0.025215  0.038494      2.000000
 -0.163302 -0.025215  0.056324      2.000000
 -0.145472 -0.025215  0.074154      2.000000
 -0.127643 -0.025215  0.091983      2.000000
 
 
 Subroutine IBZKPT_HF returns following result:
 ==============================================
 
 Found    729 k-points in 1st BZ
 the following    729 k-points will be used (e.g. in the exchange kernel)
 Following reciprocal coordinates:   # in IRBZ
  0.000000  0.000000  0.000000    0.00137174   1 t-inv F
  0.111111  0.000000  0.000000    0.00137174   2 t-inv F
  0.222222  0.000000 -0.000000    0.00137174   3 t-inv F
  0.333333  0.000000 -0.000000    0.00137174   4 t-inv F
  0.444444  0.000000 -0.000000    0.00137174   5 t-inv F
  0.000000  0.111111  0.000000    0.00137174   6 t-inv F
  0.111111  0.111111  0.000000    0.00137174   7 t-inv F
  0.222222  0.111111 -0.000000    0.00137174   8 t-inv F
  0.333333  0.111111 -0.000000    0.00137174   9 t-inv F
  0.444444  0.111111 -0.000000    0.00137174  10 t-inv F
 -0.444444  0.111111  0.000000    0.00137174  11 t-inv F
 -0.333333  0.111111  0.000000    0.00137174  12 t-inv F
 -0.222222  0.111111  0.000000    0.00137174  13 t-inv F
 -0.111111  0.111111 -0.000000    0.00137174  14 t-inv F
  0.000000  0.222222  0.000000    0.00137174  15 t-inv F
  0.111111  0.222222  0.000000    0.00137174  16 t-inv F
  0.222222  0.222222 -0.000000    0.00137174  17 t-inv F
  0.333333  0.222222 -0.000000    0.00137174  18 t-inv F
  0.444444  0.222222 -0.000000    0.00137174  19 t-inv F
 -0.444444  0.222222  0.000000    0.00137174  20 t-inv F
 -0.333333  0.222222  0.000000    0.00137174  21 t-inv F
 -0.222222  0.222222  0.000000    0.00137174  22 t-inv F
 -0.111111  0.222222 -0.000000    0.00137174  23 t-inv F
  0.000000  0.333333  0.000000    0.00137174  24 t-inv F
  0.111111  0.333333  0.000000    0.00137174  25 t-inv F
  0.222222  0.333333 -0.000000    0.00137174  26 t-inv F
  0.333333  0.333333 -0.000000    0.00137174  27 t-inv F
  0.444444  0.333333 -0.000000    0.00137174  28 t-inv F
 -0.444444  0.333333  0.000000    0.00137174  29 t-inv F
 -0.333333  0.333333  0.000000    0.00137174  30 t-inv F
 -0.222222  0.333333  0.000000    0.00137174  31 t-inv F
 -0.111111  0.333333 -0.000000    0.00137174  32 t-inv F
  0.000000  0.444444  0.000000    0.00137174  33 t-inv F
  0.111111  0.444444  0.000000    0.00137174  34 t-inv F
  0.222222  0.444444 -0.000000    0.00137174  35 t-inv F
  0.333333  0.444444 -0.000000    0.00137174  36 t-inv F
  0.444444  0.444444 -0.000000    0.00137174  37 t-inv F
 -0.444444  0.444444  0.000000    0.00137174  38 t-inv F
 -0.333333  0.444444  0.000000    0.00137174  39 t-inv F
 -0.222222  0.444444  0.000000    0.00137174  40 t-inv F
 -0.111111  0.444444 -0.000000    0.00137174  41 t-inv F
  0.000000  0.000000  0.111111    0.00137174  42 t-inv F
  0.111111  0.000000  0.111111    0.00137174  43 t-inv F
  0.222222  0.000000  0.111111    0.00137174  44 t-inv F
  0.333333  0.000000  0.111111    0.00137174  45 t-inv F
  0.444444  0.000000  0.111111    0.00137174  46 t-inv F
 -0.444444  0.000000  0.111111    0.00137174  47 t-inv F
 -0.333333  0.000000  0.111111    0.00137174  48 t-inv F
 -0.222222  0.000000  0.111111    0.00137174  49 t-inv F
 -0.111111  0.000000  0.111111    0.00137174  50 t-inv F
  0.000000  0.111111  0.111111    0.00137174  51 t-inv F
  0.111111  0.111111  0.111111    0.00137174  52 t-inv F
  0.222222  0.111111  0.111111    0.00137174  53 t-inv F
  0.333333  0.111111  0.111111    0.00137174  54 t-inv F
  0.444444  0.111111  0.111111    0.00137174  55 t-inv F
 -0.444444  0.111111  0.111111    0.00137174  56 t-inv F
 -0.333333  0.111111  0.111111    0.00137174  57 t-inv F
 -0.222222  0.111111  0.111111    0.00137174  58 t-inv F
 -0.111111  0.111111  0.111111    0.00137174  59 t-inv F
  0.000000  0.222222  0.111111    0.00137174  60 t-inv F
  0.111111  0.222222  0.111111    0.00137174  61 t-inv F
  0.222222  0.222222  0.111111    0.00137174  62 t-inv F
  0.333333  0.222222  0.111111    0.00137174  63 t-inv F
  0.444444  0.222222  0.111111    0.00137174  64 t-inv F
 -0.444444  0.222222  0.111111    0.00137174  65 t-inv F
 -0.333333  0.222222  0.111111    0.00137174  66 t-inv F
 -0.222222  0.222222  0.111111    0.00137174  67 t-inv F
 -0.111111  0.222222  0.111111    0.00137174  68 t-inv F
  0.000000  0.333333  0.111111    0.00137174  69 t-inv F
  0.111111  0.333333  0.111111    0.00137174  70 t-inv F
  0.222222  0.333333  0.111111    0.00137174  71 t-inv F
  0.333333  0.333333  0.111111    0.00137174  72 t-inv F
  0.444444  0.333333  0.111111    0.00137174  73 t-inv F
 -0.444444  0.333333  0.111111    0.00137174  74 t-inv F
 -0.333333  0.333333  0.111111    0.00137174  75 t-inv F
 -0.222222  0.333333  0.111111    0.00137174  76 t-inv F
 -0.111111  0.333333  0.111111    0.00137174  77 t-inv F
  0.000000  0.444444  0.111111    0.00137174  78 t-inv F
  0.111111  0.444444  0.111111    0.00137174  79 t-inv F
  0.222222  0.444444  0.111111    0.00137174  80 t-inv F
  0.333333  0.444444  0.111111    0.00137174  81 t-inv F
  0.444444  0.444444  0.111111    0.00137174  82 t-inv F
 -0.444444  0.444444  0.111111    0.00137174  83 t-inv F
 -0.333333  0.444444  0.111111    0.00137174  84 t-inv F
 -0.222222  0.444444  0.111111    0.00137174  85 t-inv F
 -0.111111  0.444444  0.111111    0.00137174  86 t-inv F
  0.000000 -0.444444  0.111111    0.00137174  87 t-inv F
  0.111111 -0.444444  0.111111    0.00137174  88 t-inv F
  0.222222 -0.444444  0.111111    0.00137174  89 t-inv F
  0.333333 -0.444444  0.111111    0.00137174  90 t-inv F
  0.444444 -0.444444  0.111111    0.00137174  91 t-inv F
 -0.444444 -0.444444  0.111111    0.00137174  92 t-inv F
 -0.333333 -0.444444  0.111111    0.00137174  93 t-inv F
 -0.222222 -0.444444  0.111111    0.00137174  94 t-inv F
 -0.111111 -0.444444  0.111111    0.00137174  95 t-inv F
  0.000000 -0.333333  0.111111    0.00137174  96 t-inv F
  0.111111 -0.333333  0.111111    0.00137174  97 t-inv F
  0.222222 -0.333333  0.111111    0.00137174  98 t-inv F
  0.333333 -0.333333  0.111111    0.00137174  99 t-inv F
  0.444444 -0.333333  0.111111    0.00137174 100 t-inv F
 -0.444444 -0.333333  0.111111    0.00137174 101 t-inv F
 -0.333333 -0.333333  0.111111    0.00137174 102 t-inv F
 -0.222222 -0.333333  0.111111    0.00137174 103 t-inv F
 -0.111111 -0.333333  0.111111    0.00137174 104 t-inv F
  0.000000 -0.222222  0.111111    0.00137174 105 t-inv F
  0.111111 -0.222222  0.111111    0.00137174 106 t-inv F
  0.222222 -0.222222  0.111111    0.00137174 107 t-inv F
  0.333333 -0.222222  0.111111    0.00137174 108 t-inv F
  0.444444 -0.222222  0.111111    0.00137174 109 t-inv F
 -0.444444 -0.222222  0.111111    0.00137174 110 t-inv F
 -0.333333 -0.222222  0.111111    0.00137174 111 t-inv F
 -0.222222 -0.222222  0.111111    0.00137174 112 t-inv F
 -0.111111 -0.222222  0.111111    0.00137174 113 t-inv F
  0.000000 -0.111111  0.111111    0.00137174 114 t-inv F
  0.111111 -0.111111  0.111111    0.00137174 115 t-inv F
  0.222222 -0.111111  0.111111    0.00137174 116 t-inv F
  0.333333 -0.111111  0.111111    0.00137174 117 t-inv F
  0.444444 -0.111111  0.111111    0.00137174 118 t-inv F
 -0.444444 -0.111111  0.111111    0.00137174 119 t-inv F
 -0.333333 -0.111111  0.111111    0.00137174 120 t-inv F
 -0.222222 -0.111111  0.111111    0.00137174 121 t-inv F
 -0.111111 -0.111111  0.111111    0.00137174 122 t-inv F
  0.000000  0.000000  0.222222    0.00137174 123 t-inv F
  0.111111  0.000000  0.222222    0.00137174 124 t-inv F
  0.222222  0.000000  0.222222    0.00137174 125 t-inv F
  0.333333  0.000000  0.222222    0.00137174 126 t-inv F
  0.444444  0.000000  0.222222    0.00137174 127 t-inv F
 -0.444444  0.000000  0.222222    0.00137174 128 t-inv F
 -0.333333  0.000000  0.222222    0.00137174 129 t-inv F
 -0.222222  0.000000  0.222222    0.00137174 130 t-inv F
 -0.111111  0.000000  0.222222    0.00137174 131 t-inv F
  0.000000  0.111111  0.222222    0.00137174 132 t-inv F
  0.111111  0.111111  0.222222    0.00137174 133 t-inv F
  0.222222  0.111111  0.222222    0.00137174 134 t-inv F
  0.333333  0.111111  0.222222    0.00137174 135 t-inv F
  0.444444  0.111111  0.222222    0.00137174 136 t-inv F
 -0.444444  0.111111  0.222222    0.00137174 137 t-inv F
 -0.333333  0.111111  0.222222    0.00137174 138 t-inv F
 -0.222222  0.111111  0.222222    0.00137174 139 t-inv F
 -0.111111  0.111111  0.222222    0.00137174 140 t-inv F
  0.000000  0.222222  0.222222    0.00137174 141 t-inv F
  0.111111  0.222222  0.222222    0.00137174 142 t-inv F
  0.222222  0.222222  0.222222    0.00137174 143 t-inv F
  0.333333  0.222222  0.222222    0.00137174 144 t-inv F
  0.444444  0.222222  0.222222    0.00137174 145 t-inv F
 -0.444444  0.222222  0.222222    0.00137174 146 t-inv F
 -0.333333  0.222222  0.222222    0.00137174 147 t-inv F
 -0.222222  0.222222  0.222222    0.00137174 148 t-inv F
 -0.111111  0.222222  0.222222    0.00137174 149 t-inv F
  0.000000  0.333333  0.222222    0.00137174 150 t-inv F
  0.111111  0.333333  0.222222    0.00137174 151 t-inv F
  0.222222  0.333333  0.222222    0.00137174 152 t-inv F
  0.333333  0.333333  0.222222    0.00137174 153 t-inv F
  0.444444  0.333333  0.222222    0.00137174 154 t-inv F
 -0.444444  0.333333  0.222222    0.00137174 155 t-inv F
 -0.333333  0.333333  0.222222    0.00137174 156 t-inv F
 -0.222222  0.333333  0.222222    0.00137174 157 t-inv F
 -0.111111  0.333333  0.222222    0.00137174 158 t-inv F
  0.000000  0.444444  0.222222    0.00137174 159 t-inv F
  0.111111  0.444444  0.222222    0.00137174 160 t-inv F
  0.222222  0.444444  0.222222    0.00137174 161 t-inv F
  0.333333  0.444444  0.222222    0.00137174 162 t-inv F
  0.444444  0.444444  0.222222    0.00137174 163 t-inv F
 -0.444444  0.444444  0.222222    0.00137174 164 t-inv F
 -0.333333  0.444444  0.222222    0.00137174 165 t-inv F
 -0.222222  0.444444  0.222222    0.00137174 166 t-inv F
 -0.111111  0.444444  0.222222    0.00137174 167 t-inv F
  0.000000 -0.444444  0.222222    0.00137174 168 t-inv F
  0.111111 -0.444444  0.222222    0.00137174 169 t-inv F
  0.222222 -0.444444  0.222222    0.00137174 170 t-inv F
  0.333333 -0.444444  0.222222    0.00137174 171 t-inv F
  0.444444 -0.444444  0.222222    0.00137174 172 t-inv F
 -0.444444 -0.444444  0.222222    0.00137174 173 t-inv F
 -0.333333 -0.444444  0.222222    0.00137174 174 t-inv F
 -0.222222 -0.444444  0.222222    0.00137174 175 t-inv F
 -0.111111 -0.444444  0.222222    0.00137174 176 t-inv F
  0.000000 -0.333333  0.222222    0.00137174 177 t-inv F
  0.111111 -0.333333  0.222222    0.00137174 178 t-inv F
  0.222222 -0.333333  0.222222    0.00137174 179 t-inv F
  0.333333 -0.333333  0.222222    0.00137174 180 t-inv F
  0.444444 -0.333333  0.222222    0.00137174 181 t-inv F
 -0.444444 -0.333333  0.222222    0.00137174 182 t-inv F
 -0.333333 -0.333333  0.222222    0.00137174 183 t-inv F
 -0.222222 -0.333333  0.222222    0.00137174 184 t-inv F
 -0.111111 -0.333333  0.222222    0.00137174 185 t-inv F
  0.000000 -0.222222  0.222222    0.00137174 186 t-inv F
  0.111111 -0.222222  0.222222    0.00137174 187 t-inv F
  0.222222 -0.222222  0.222222    0.00137174 188 t-inv F
  0.333333 -0.222222  0.222222    0.00137174 189 t-inv F
  0.444444 -0.222222  0.222222    0.00137174 190 t-inv F
 -0.444444 -0.222222  0.222222    0.00137174 191 t-inv F
 -0.333333 -0.222222  0.222222    0.00137174 192 t-inv F
 -0.222222 -0.222222  0.222222    0.00137174 193 t-inv F
 -0.111111 -0.222222  0.222222    0.00137174 194 t-inv F
  0.000000 -0.111111  0.222222    0.00137174 195 t-inv F
  0.111111 -0.111111  0.222222    0.00137174 196 t-inv F
  0.222222 -0.111111  0.222222    0.00137174 197 t-inv F
  0.333333 -0.111111  0.222222    0.00137174 198 t-inv F
  0.444444 -0.111111  0.222222    0.00137174 199 t-inv F
 -0.444444 -0.111111  0.222222    0.00137174 200 t-inv F
 -0.333333 -0.111111  0.222222    0.00137174 201 t-inv F
 -0.222222 -0.111111  0.222222    0.00137174 202 t-inv F
 -0.111111 -0.111111  0.222222    0.00137174 203 t-inv F
 -0.000000  0.000000  0.333333    0.00137174 204 t-inv F
  0.111111  0.000000  0.333333    0.00137174 205 t-inv F
  0.222222  0.000000  0.333333    0.00137174 206 t-inv F
  0.333333  0.000000  0.333333    0.00137174 207 t-inv F
  0.444444  0.000000  0.333333    0.00137174 208 t-inv F
 -0.444444  0.000000  0.333333    0.00137174 209 t-inv F
 -0.333333  0.000000  0.333333    0.00137174 210 t-inv F
 -0.222222  0.000000  0.333333    0.00137174 211 t-inv F
 -0.111111  0.000000  0.333333    0.00137174 212 t-inv F
 -0.000000  0.111111  0.333333    0.00137174 213 t-inv F
  0.111111  0.111111  0.333333    0.00137174 214 t-inv F
  0.222222  0.111111  0.333333    0.00137174 215 t-inv F
  0.333333  0.111111  0.333333    0.00137174 216 t-inv F
  0.444444  0.111111  0.333333    0.00137174 217 t-inv F
 -0.444444  0.111111  0.333333    0.00137174 218 t-inv F
 -0.333333  0.111111  0.333333    0.00137174 219 t-inv F
 -0.222222  0.111111  0.333333    0.00137174 220 t-inv F
 -0.111111  0.111111  0.333333    0.00137174 221 t-inv F
 -0.000000  0.222222  0.333333    0.00137174 222 t-inv F
  0.111111  0.222222  0.333333    0.00137174 223 t-inv F
  0.222222  0.222222  0.333333    0.00137174 224 t-inv F
  0.333333  0.222222  0.333333    0.00137174 225 t-inv F
  0.444444  0.222222  0.333333    0.00137174 226 t-inv F
 -0.444444  0.222222  0.333333    0.00137174 227 t-inv F
 -0.333333  0.222222  0.333333    0.00137174 228 t-inv F
 -0.222222  0.222222  0.333333    0.00137174 229 t-inv F
 -0.111111  0.222222  0.333333    0.00137174 230 t-inv F
 -0.000000  0.333333  0.333333    0.00137174 231 t-inv F
  0.111111  0.333333  0.333333    0.00137174 232 t-inv F
  0.222222  0.333333  0.333333    0.00137174 233 t-inv F
  0.333333  0.333333  0.333333    0.00137174 234 t-inv F
  0.444444  0.333333  0.333333    0.00137174 235 t-inv F
 -0.444444  0.333333  0.333333    0.00137174 236 t-inv F
 -0.333333  0.333333  0.333333    0.00137174 237 t-inv F
 -0.222222  0.333333  0.333333    0.00137174 238 t-inv F
 -0.111111  0.333333  0.333333    0.00137174 239 t-inv F
 -0.000000  0.444444  0.333333    0.00137174 240 t-inv F
  0.111111  0.444444  0.333333    0.00137174 241 t-inv F
  0.222222  0.444444  0.333333    0.00137174 242 t-inv F
  0.333333  0.444444  0.333333    0.00137174 243 t-inv F
  0.444444  0.444444  0.333333    0.00137174 244 t-inv F
 -0.444444  0.444444  0.333333    0.00137174 245 t-inv F
 -0.333333  0.444444  0.333333    0.00137174 246 t-inv F
 -0.222222  0.444444  0.333333    0.00137174 247 t-inv F
 -0.111111  0.444444  0.333333    0.00137174 248 t-inv F
 -0.000000 -0.444444  0.333333    0.00137174 249 t-inv F
  0.111111 -0.444444  0.333333    0.00137174 250 t-inv F
  0.222222 -0.444444  0.333333    0.00137174 251 t-inv F
  0.333333 -0.444444  0.333333    0.00137174 252 t-inv F
  0.444444 -0.444444  0.333333    0.00137174 253 t-inv F
 -0.444444 -0.444444  0.333333    0.00137174 254 t-inv F
 -0.333333 -0.444444  0.333333    0.00137174 255 t-inv F
 -0.222222 -0.444444  0.333333    0.00137174 256 t-inv F
 -0.111111 -0.444444  0.333333    0.00137174 257 t-inv F
 -0.000000 -0.333333  0.333333    0.00137174 258 t-inv F
  0.111111 -0.333333  0.333333    0.00137174 259 t-inv F
  0.222222 -0.333333  0.333333    0.00137174 260 t-inv F
  0.333333 -0.333333  0.333333    0.00137174 261 t-inv F
  0.444444 -0.333333  0.333333    0.00137174 262 t-inv F
 -0.444444 -0.333333  0.333333    0.00137174 263 t-inv F
 -0.333333 -0.333333  0.333333    0.00137174 264 t-inv F
 -0.222222 -0.333333  0.333333    0.00137174 265 t-inv F
 -0.111111 -0.333333  0.333333    0.00137174 266 t-inv F
 -0.000000 -0.222222  0.333333    0.00137174 267 t-inv F
  0.111111 -0.222222  0.333333    0.00137174 268 t-inv F
  0.222222 -0.222222  0.333333    0.00137174 269 t-inv F
  0.333333 -0.222222  0.333333    0.00137174 270 t-inv F
  0.444444 -0.222222  0.333333    0.00137174 271 t-inv F
 -0.444444 -0.222222  0.333333    0.00137174 272 t-inv F
 -0.333333 -0.222222  0.333333    0.00137174 273 t-inv F
 -0.222222 -0.222222  0.333333    0.00137174 274 t-inv F
 -0.111111 -0.222222  0.333333    0.00137174 275 t-inv F
 -0.000000 -0.111111  0.333333    0.00137174 276 t-inv F
  0.111111 -0.111111  0.333333    0.00137174 277 t-inv F
  0.222222 -0.111111  0.333333    0.00137174 278 t-inv F
  0.333333 -0.111111  0.333333    0.00137174 279 t-inv F
  0.444444 -0.111111  0.333333    0.00137174 280 t-inv F
 -0.444444 -0.111111  0.333333    0.00137174 281 t-inv F
 -0.333333 -0.111111  0.333333    0.00137174 282 t-inv F
 -0.222222 -0.111111  0.333333    0.00137174 283 t-inv F
 -0.111111 -0.111111  0.333333    0.00137174 284 t-inv F
  0.000000  0.000000  0.444444    0.00137174 285 t-inv F
  0.111111  0.000000  0.444444    0.00137174 286 t-inv F
  0.222222  0.000000  0.444444    0.00137174 287 t-inv F
  0.333333  0.000000  0.444444    0.00137174 288 t-inv F
  0.444444  0.000000  0.444444    0.00137174 289 t-inv F
 -0.444444  0.000000  0.444444    0.00137174 290 t-inv F
 -0.333333  0.000000  0.444444    0.00137174 291 t-inv F
 -0.222222  0.000000  0.444444    0.00137174 292 t-inv F
 -0.111111  0.000000  0.444444    0.00137174 293 t-inv F
  0.000000  0.111111  0.444444    0.00137174 294 t-inv F
  0.111111  0.111111  0.444444    0.00137174 295 t-inv F
  0.222222  0.111111  0.444444    0.00137174 296 t-inv F
  0.333333  0.111111  0.444444    0.00137174 297 t-inv F
  0.444444  0.111111  0.444444    0.00137174 298 t-inv F
 -0.444444  0.111111  0.444444    0.00137174 299 t-inv F
 -0.333333  0.111111  0.444444    0.00137174 300 t-inv F
 -0.222222  0.111111  0.444444    0.00137174 301 t-inv F
 -0.111111  0.111111  0.444444    0.00137174 302 t-inv F
  0.000000  0.222222  0.444444    0.00137174 303 t-inv F
  0.111111  0.222222  0.444444    0.00137174 304 t-inv F
  0.222222  0.222222  0.444444    0.00137174 305 t-inv F
  0.333333  0.222222  0.444444    0.00137174 306 t-inv F
  0.444444  0.222222  0.444444    0.00137174 307 t-inv F
 -0.444444  0.222222  0.444444    0.00137174 308 t-inv F
 -0.333333  0.222222  0.444444    0.00137174 309 t-inv F
 -0.222222  0.222222  0.444444    0.00137174 310 t-inv F
 -0.111111  0.222222  0.444444    0.00137174 311 t-inv F
  0.000000  0.333333  0.444444    0.00137174 312 t-inv F
  0.111111  0.333333  0.444444    0.00137174 313 t-inv F
  0.222222  0.333333  0.444444    0.00137174 314 t-inv F
  0.333333  0.333333  0.444444    0.00137174 315 t-inv F
  0.444444  0.333333  0.444444    0.00137174 316 t-inv F
 -0.444444  0.333333  0.444444    0.00137174 317 t-inv F
 -0.333333  0.333333  0.444444    0.00137174 318 t-inv F
 -0.222222  0.333333  0.444444    0.00137174 319 t-inv F
 -0.111111  0.333333  0.444444    0.00137174 320 t-inv F
  0.000000  0.444444  0.444444    0.00137174 321 t-inv F
  0.111111  0.444444  0.444444    0.00137174 322 t-inv F
  0.222222  0.444444  0.444444    0.00137174 323 t-inv F
  0.333333  0.444444  0.444444    0.00137174 324 t-inv F
  0.444444  0.444444  0.444444    0.00137174 325 t-inv F
 -0.444444  0.444444  0.444444    0.00137174 326 t-inv F
 -0.333333  0.444444  0.444444    0.00137174 327 t-inv F
 -0.222222  0.444444  0.444444    0.00137174 328 t-inv F
 -0.111111  0.444444  0.444444    0.00137174 329 t-inv F
  0.000000 -0.444444  0.444444    0.00137174 330 t-inv F
  0.111111 -0.444444  0.444444    0.00137174 331 t-inv F
  0.222222 -0.444444  0.444444    0.00137174 332 t-inv F
  0.333333 -0.444444  0.444444    0.00137174 333 t-inv F
  0.444444 -0.444444  0.444444    0.00137174 334 t-inv F
 -0.444444 -0.444444  0.444444    0.00137174 335 t-inv F
 -0.333333 -0.444444  0.444444    0.00137174 336 t-inv F
 -0.222222 -0.444444  0.444444    0.00137174 337 t-inv F
 -0.111111 -0.444444  0.444444    0.00137174 338 t-inv F
  0.000000 -0.333333  0.444444    0.00137174 339 t-inv F
  0.111111 -0.333333  0.444444    0.00137174 340 t-inv F
  0.222222 -0.333333  0.444444    0.00137174 341 t-inv F
  0.333333 -0.333333  0.444444    0.00137174 342 t-inv F
  0.444444 -0.333333  0.444444    0.00137174 343 t-inv F
 -0.444444 -0.333333  0.444444    0.00137174 344 t-inv F
 -0.333333 -0.333333  0.444444    0.00137174 345 t-inv F
 -0.222222 -0.333333  0.444444    0.00137174 346 t-inv F
 -0.111111 -0.333333  0.444444    0.00137174 347 t-inv F
  0.000000 -0.222222  0.444444    0.00137174 348 t-inv F
  0.111111 -0.222222  0.444444    0.00137174 349 t-inv F
  0.222222 -0.222222  0.444444    0.00137174 350 t-inv F
  0.333333 -0.222222  0.444444    0.00137174 351 t-inv F
  0.444444 -0.222222  0.444444    0.00137174 352 t-inv F
 -0.444444 -0.222222  0.444444    0.00137174 353 t-inv F
 -0.333333 -0.222222  0.444444    0.00137174 354 t-inv F
 -0.222222 -0.222222  0.444444    0.00137174 355 t-inv F
 -0.111111 -0.222222  0.444444    0.00137174 356 t-inv F
  0.000000 -0.111111  0.444444    0.00137174 357 t-inv F
  0.111111 -0.111111  0.444444    0.00137174 358 t-inv F
  0.222222 -0.111111  0.444444    0.00137174 359 t-inv F
  0.333333 -0.111111  0.444444    0.00137174 360 t-inv F
  0.444444 -0.111111  0.444444    0.00137174 361 t-inv F
 -0.444444 -0.111111  0.444444    0.00137174 362 t-inv F
 -0.333333 -0.111111  0.444444    0.00137174 363 t-inv F
 -0.222222 -0.111111  0.444444    0.00137174 364 t-inv F
 -0.111111 -0.111111  0.444444    0.00137174 365 t-inv F
 -0.111111  0.000000 -0.000000    0.00137174   2 t-inv T
 -0.222222  0.000000  0.000000    0.00137174   3 t-inv T
 -0.333333  0.000000  0.000000    0.00137174   4 t-inv T
 -0.444444  0.000000  0.000000    0.00137174   5 t-inv T
  0.000000 -0.111111  0.000000    0.00137174   6 t-inv T
 -0.111111 -0.111111 -0.000000    0.00137174   7 t-inv T
 -0.222222 -0.111111  0.000000    0.00137174   8 t-inv T
 -0.333333 -0.111111  0.000000    0.00137174   9 t-inv T
 -0.444444 -0.111111  0.000000    0.00137174  10 t-inv T
  0.444444 -0.111111 -0.000000    0.00137174  11 t-inv T
  0.333333 -0.111111 -0.000000    0.00137174  12 t-inv T
  0.222222 -0.111111 -0.000000    0.00137174  13 t-inv T
  0.111111 -0.111111  0.000000    0.00137174  14 t-inv T
  0.000000 -0.222222  0.000000    0.00137174  15 t-inv T
 -0.111111 -0.222222 -0.000000    0.00137174  16 t-inv T
 -0.222222 -0.222222  0.000000    0.00137174  17 t-inv T
 -0.333333 -0.222222  0.000000    0.00137174  18 t-inv T
 -0.444444 -0.222222  0.000000    0.00137174  19 t-inv T
  0.444444 -0.222222 -0.000000    0.00137174  20 t-inv T
  0.333333 -0.222222 -0.000000    0.00137174  21 t-inv T
  0.222222 -0.222222 -0.000000    0.00137174  22 t-inv T
  0.111111 -0.222222  0.000000    0.00137174  23 t-inv T
  0.000000 -0.333333  0.000000    0.00137174  24 t-inv T
 -0.111111 -0.333333 -0.000000    0.00137174  25 t-inv T
 -0.222222 -0.333333  0.000000    0.00137174  26 t-inv T
 -0.333333 -0.333333  0.000000    0.00137174  27 t-inv T
 -0.444444 -0.333333  0.000000    0.00137174  28 t-inv T
  0.444444 -0.333333 -0.000000    0.00137174  29 t-inv T
  0.333333 -0.333333 -0.000000    0.00137174  30 t-inv T
  0.222222 -0.333333 -0.000000    0.00137174  31 t-inv T
  0.111111 -0.333333  0.000000    0.00137174  32 t-inv T
  0.000000 -0.444444  0.000000    0.00137174  33 t-inv T
 -0.111111 -0.444444 -0.000000    0.00137174  34 t-inv T
 -0.222222 -0.444444  0.000000    0.00137174  35 t-inv T
 -0.333333 -0.444444  0.000000    0.00137174  36 t-inv T
 -0.444444 -0.444444  0.000000    0.00137174  37 t-inv T
  0.444444 -0.444444 -0.000000    0.00137174  38 t-inv T
  0.333333 -0.444444 -0.000000    0.00137174  39 t-inv T
  0.222222 -0.444444 -0.000000    0.00137174  40 t-inv T
  0.111111 -0.444444  0.000000    0.00137174  41 t-inv T
 -0.000000  0.000000 -0.111111    0.00137174  42 t-inv T
 -0.111111  0.000000 -0.111111    0.00137174  43 t-inv T
 -0.222222  0.000000 -0.111111    0.00137174  44 t-inv T
 -0.333333  0.000000 -0.111111    0.00137174  45 t-inv T
 -0.444444  0.000000 -0.111111    0.00137174  46 t-inv T
  0.444444  0.000000 -0.111111    0.00137174  47 t-inv T
  0.333333  0.000000 -0.111111    0.00137174  48 t-inv T
  0.222222  0.000000 -0.111111    0.00137174  49 t-inv T
  0.111111  0.000000 -0.111111    0.00137174  50 t-inv T
 -0.000000 -0.111111 -0.111111    0.00137174  51 t-inv T
 -0.111111 -0.111111 -0.111111    0.00137174  52 t-inv T
 -0.222222 -0.111111 -0.111111    0.00137174  53 t-inv T
 -0.333333 -0.111111 -0.111111    0.00137174  54 t-inv T
 -0.444444 -0.111111 -0.111111    0.00137174  55 t-inv T
  0.444444 -0.111111 -0.111111    0.00137174  56 t-inv T
  0.333333 -0.111111 -0.111111    0.00137174  57 t-inv T
  0.222222 -0.111111 -0.111111    0.00137174  58 t-inv T
  0.111111 -0.111111 -0.111111    0.00137174  59 t-inv T
 -0.000000 -0.222222 -0.111111    0.00137174  60 t-inv T
 -0.111111 -0.222222 -0.111111    0.00137174  61 t-inv T
 -0.222222 -0.222222 -0.111111    0.00137174  62 t-inv T
 -0.333333 -0.222222 -0.111111    0.00137174  63 t-inv T
 -0.444444 -0.222222 -0.111111    0.00137174  64 t-inv T
  0.444444 -0.222222 -0.111111    0.00137174  65 t-inv T
  0.333333 -0.222222 -0.111111    0.00137174  66 t-inv T
  0.222222 -0.222222 -0.111111    0.00137174  67 t-inv T
  0.111111 -0.222222 -0.111111    0.00137174  68 t-inv T
 -0.000000 -0.333333 -0.111111    0.00137174  69 t-inv T
 -0.111111 -0.333333 -0.111111    0.00137174  70 t-inv T
 -0.222222 -0.333333 -0.111111    0.00137174  71 t-inv T
 -0.333333 -0.333333 -0.111111    0.00137174  72 t-inv T
 -0.444444 -0.333333 -0.111111    0.00137174  73 t-inv T
  0.444444 -0.333333 -0.111111    0.00137174  74 t-inv T
  0.333333 -0.333333 -0.111111    0.00137174  75 t-inv T
  0.222222 -0.333333 -0.111111    0.00137174  76 t-inv T
  0.111111 -0.333333 -0.111111    0.00137174  77 t-inv T
 -0.000000 -0.444444 -0.111111    0.00137174  78 t-inv T
 -0.111111 -0.444444 -0.111111    0.00137174  79 t-inv T
 -0.222222 -0.444444 -0.111111    0.00137174  80 t-inv T
 -0.333333 -0.444444 -0.111111    0.00137174  81 t-inv T
 -0.444444 -0.444444 -0.111111    0.00137174  82 t-inv T
  0.444444 -0.444444 -0.111111    0.00137174  83 t-inv T
  0.333333 -0.444444 -0.111111    0.00137174  84 t-inv T
  0.222222 -0.444444 -0.111111    0.00137174  85 t-inv T
  0.111111 -0.444444 -0.111111    0.00137174  86 t-inv T
 -0.000000  0.444444 -0.111111    0.00137174  87 t-inv T
 -0.111111  0.444444 -0.111111    0.00137174  88 t-inv T
 -0.222222  0.444444 -0.111111    0.00137174  89 t-inv T
 -0.333333  0.444444 -0.111111    0.00137174  90 t-inv T
 -0.444444  0.444444 -0.111111    0.00137174  91 t-inv T
  0.444444  0.444444 -0.111111    0.00137174  92 t-inv T
  0.333333  0.444444 -0.111111    0.00137174  93 t-inv T
  0.222222  0.444444 -0.111111    0.00137174  94 t-inv T
  0.111111  0.444444 -0.111111    0.00137174  95 t-inv T
 -0.000000  0.333333 -0.111111    0.00137174  96 t-inv T
 -0.111111  0.333333 -0.111111    0.00137174  97 t-inv T
 -0.222222  0.333333 -0.111111    0.00137174  98 t-inv T
 -0.333333  0.333333 -0.111111    0.00137174  99 t-inv T
 -0.444444  0.333333 -0.111111    0.00137174 100 t-inv T
  0.444444  0.333333 -0.111111    0.00137174 101 t-inv T
  0.333333  0.333333 -0.111111    0.00137174 102 t-inv T
  0.222222  0.333333 -0.111111    0.00137174 103 t-inv T
  0.111111  0.333333 -0.111111    0.00137174 104 t-inv T
 -0.000000  0.222222 -0.111111    0.00137174 105 t-inv T
 -0.111111  0.222222 -0.111111    0.00137174 106 t-inv T
 -0.222222  0.222222 -0.111111    0.00137174 107 t-inv T
 -0.333333  0.222222 -0.111111    0.00137174 108 t-inv T
 -0.444444  0.222222 -0.111111    0.00137174 109 t-inv T
  0.444444  0.222222 -0.111111    0.00137174 110 t-inv T
  0.333333  0.222222 -0.111111    0.00137174 111 t-inv T
  0.222222  0.222222 -0.111111    0.00137174 112 t-inv T
  0.111111  0.222222 -0.111111    0.00137174 113 t-inv T
 -0.000000  0.111111 -0.111111    0.00137174 114 t-inv T
 -0.111111  0.111111 -0.111111    0.00137174 115 t-inv T
 -0.222222  0.111111 -0.111111    0.00137174 116 t-inv T
 -0.333333  0.111111 -0.111111    0.00137174 117 t-inv T
 -0.444444  0.111111 -0.111111    0.00137174 118 t-inv T
  0.444444  0.111111 -0.111111    0.00137174 119 t-inv T
  0.333333  0.111111 -0.111111    0.00137174 120 t-inv T
  0.222222  0.111111 -0.111111    0.00137174 121 t-inv T
  0.111111  0.111111 -0.111111    0.00137174 122 t-inv T
 -0.000000  0.000000 -0.222222    0.00137174 123 t-inv T
 -0.111111  0.000000 -0.222222    0.00137174 124 t-inv T
 -0.222222  0.000000 -0.222222    0.00137174 125 t-inv T
 -0.333333  0.000000 -0.222222    0.00137174 126 t-inv T
 -0.444444  0.000000 -0.222222    0.00137174 127 t-inv T
  0.444444  0.000000 -0.222222    0.00137174 128 t-inv T
  0.333333  0.000000 -0.222222    0.00137174 129 t-inv T
  0.222222  0.000000 -0.222222    0.00137174 130 t-inv T
  0.111111  0.000000 -0.222222    0.00137174 131 t-inv T
 -0.000000 -0.111111 -0.222222    0.00137174 132 t-inv T
 -0.111111 -0.111111 -0.222222    0.00137174 133 t-inv T
 -0.222222 -0.111111 -0.222222    0.00137174 134 t-inv T
 -0.333333 -0.111111 -0.222222    0.00137174 135 t-inv T
 -0.444444 -0.111111 -0.222222    0.00137174 136 t-inv T
  0.444444 -0.111111 -0.222222    0.00137174 137 t-inv T
  0.333333 -0.111111 -0.222222    0.00137174 138 t-inv T
  0.222222 -0.111111 -0.222222    0.00137174 139 t-inv T
  0.111111 -0.111111 -0.222222    0.00137174 140 t-inv T
 -0.000000 -0.222222 -0.222222    0.00137174 141 t-inv T
 -0.111111 -0.222222 -0.222222    0.00137174 142 t-inv T
 -0.222222 -0.222222 -0.222222    0.00137174 143 t-inv T
 -0.333333 -0.222222 -0.222222    0.00137174 144 t-inv T
 -0.444444 -0.222222 -0.222222    0.00137174 145 t-inv T
  0.444444 -0.222222 -0.222222    0.00137174 146 t-inv T
  0.333333 -0.222222 -0.222222    0.00137174 147 t-inv T
  0.222222 -0.222222 -0.222222    0.00137174 148 t-inv T
  0.111111 -0.222222 -0.222222    0.00137174 149 t-inv T
 -0.000000 -0.333333 -0.222222    0.00137174 150 t-inv T
 -0.111111 -0.333333 -0.222222    0.00137174 151 t-inv T
 -0.222222 -0.333333 -0.222222    0.00137174 152 t-inv T
 -0.333333 -0.333333 -0.222222    0.00137174 153 t-inv T
 -0.444444 -0.333333 -0.222222    0.00137174 154 t-inv T
  0.444444 -0.333333 -0.222222    0.00137174 155 t-inv T
  0.333333 -0.333333 -0.222222    0.00137174 156 t-inv T
  0.222222 -0.333333 -0.222222    0.00137174 157 t-inv T
  0.111111 -0.333333 -0.222222    0.00137174 158 t-inv T
 -0.000000 -0.444444 -0.222222    0.00137174 159 t-inv T
 -0.111111 -0.444444 -0.222222    0.00137174 160 t-inv T
 -0.222222 -0.444444 -0.222222    0.00137174 161 t-inv T
 -0.333333 -0.444444 -0.222222    0.00137174 162 t-inv T
 -0.444444 -0.444444 -0.222222    0.00137174 163 t-inv T
  0.444444 -0.444444 -0.222222    0.00137174 164 t-inv T
  0.333333 -0.444444 -0.222222    0.00137174 165 t-inv T
  0.222222 -0.444444 -0.222222    0.00137174 166 t-inv T
  0.111111 -0.444444 -0.222222    0.00137174 167 t-inv T
 -0.000000  0.444444 -0.222222    0.00137174 168 t-inv T
 -0.111111  0.444444 -0.222222    0.00137174 169 t-inv T
 -0.222222  0.444444 -0.222222    0.00137174 170 t-inv T
 -0.333333  0.444444 -0.222222    0.00137174 171 t-inv T
 -0.444444  0.444444 -0.222222    0.00137174 172 t-inv T
  0.444444  0.444444 -0.222222    0.00137174 173 t-inv T
  0.333333  0.444444 -0.222222    0.00137174 174 t-inv T
  0.222222  0.444444 -0.222222    0.00137174 175 t-inv T
  0.111111  0.444444 -0.222222    0.00137174 176 t-inv T
 -0.000000  0.333333 -0.222222    0.00137174 177 t-inv T
 -0.111111  0.333333 -0.222222    0.00137174 178 t-inv T
 -0.222222  0.333333 -0.222222    0.00137174 179 t-inv T
 -0.333333  0.333333 -0.222222    0.00137174 180 t-inv T
 -0.444444  0.333333 -0.222222    0.00137174 181 t-inv T
  0.444444  0.333333 -0.222222    0.00137174 182 t-inv T
  0.333333  0.333333 -0.222222    0.00137174 183 t-inv T
  0.222222  0.333333 -0.222222    0.00137174 184 t-inv T
  0.111111  0.333333 -0.222222    0.00137174 185 t-inv T
 -0.000000  0.222222 -0.222222    0.00137174 186 t-inv T
 -0.111111  0.222222 -0.222222    0.00137174 187 t-inv T
 -0.222222  0.222222 -0.222222    0.00137174 188 t-inv T
 -0.333333  0.222222 -0.222222    0.00137174 189 t-inv T
 -0.444444  0.222222 -0.222222    0.00137174 190 t-inv T
  0.444444  0.222222 -0.222222    0.00137174 191 t-inv T
  0.333333  0.222222 -0.222222    0.00137174 192 t-inv T
  0.222222  0.222222 -0.222222    0.00137174 193 t-inv T
  0.111111  0.222222 -0.222222    0.00137174 194 t-inv T
 -0.000000  0.111111 -0.222222    0.00137174 195 t-inv T
 -0.111111  0.111111 -0.222222    0.00137174 196 t-inv T
 -0.222222  0.111111 -0.222222    0.00137174 197 t-inv T
 -0.333333  0.111111 -0.222222    0.00137174 198 t-inv T
 -0.444444  0.111111 -0.222222    0.00137174 199 t-inv T
  0.444444  0.111111 -0.222222    0.00137174 200 t-inv T
  0.333333  0.111111 -0.222222    0.00137174 201 t-inv T
  0.222222  0.111111 -0.222222    0.00137174 202 t-inv T
  0.111111  0.111111 -0.222222    0.00137174 203 t-inv T
  0.000000  0.000000 -0.333333    0.00137174 204 t-inv T
 -0.111111  0.000000 -0.333333    0.00137174 205 t-inv T
 -0.222222  0.000000 -0.333333    0.00137174 206 t-inv T
 -0.333333  0.000000 -0.333333    0.00137174 207 t-inv T
 -0.444444  0.000000 -0.333333    0.00137174 208 t-inv T
  0.444444  0.000000 -0.333333    0.00137174 209 t-inv T
  0.333333  0.000000 -0.333333    0.00137174 210 t-inv T
  0.222222  0.000000 -0.333333    0.00137174 211 t-inv T
  0.111111  0.000000 -0.333333    0.00137174 212 t-inv T
  0.000000 -0.111111 -0.333333    0.00137174 213 t-inv T
 -0.111111 -0.111111 -0.333333    0.00137174 214 t-inv T
 -0.222222 -0.111111 -0.333333    0.00137174 215 t-inv T
 -0.333333 -0.111111 -0.333333    0.00137174 216 t-inv T
 -0.444444 -0.111111 -0.333333    0.00137174 217 t-inv T
  0.444444 -0.111111 -0.333333    0.00137174 218 t-inv T
  0.333333 -0.111111 -0.333333    0.00137174 219 t-inv T
  0.222222 -0.111111 -0.333333    0.00137174 220 t-inv T
  0.111111 -0.111111 -0.333333    0.00137174 221 t-inv T
  0.000000 -0.222222 -0.333333    0.00137174 222 t-inv T
 -0.111111 -0.222222 -0.333333    0.00137174 223 t-inv T
 -0.222222 -0.222222 -0.333333    0.00137174 224 t-inv T
 -0.333333 -0.222222 -0.333333    0.00137174 225 t-inv T
 -0.444444 -0.222222 -0.333333    0.00137174 226 t-inv T
  0.444444 -0.222222 -0.333333    0.00137174 227 t-inv T
  0.333333 -0.222222 -0.333333    0.00137174 228 t-inv T
  0.222222 -0.222222 -0.333333    0.00137174 229 t-inv T
  0.111111 -0.222222 -0.333333    0.00137174 230 t-inv T
  0.000000 -0.333333 -0.333333    0.00137174 231 t-inv T
 -0.111111 -0.333333 -0.333333    0.00137174 232 t-inv T
 -0.222222 -0.333333 -0.333333    0.00137174 233 t-inv T
 -0.333333 -0.333333 -0.333333    0.00137174 234 t-inv T
 -0.444444 -0.333333 -0.333333    0.00137174 235 t-inv T
  0.444444 -0.333333 -0.333333    0.00137174 236 t-inv T
  0.333333 -0.333333 -0.333333    0.00137174 237 t-inv T
  0.222222 -0.333333 -0.333333    0.00137174 238 t-inv T
  0.111111 -0.333333 -0.333333    0.00137174 239 t-inv T
  0.000000 -0.444444 -0.333333    0.00137174 240 t-inv T
 -0.111111 -0.444444 -0.333333    0.00137174 241 t-inv T
 -0.222222 -0.444444 -0.333333    0.00137174 242 t-inv T
 -0.333333 -0.444444 -0.333333    0.00137174 243 t-inv T
 -0.444444 -0.444444 -0.333333    0.00137174 244 t-inv T
  0.444444 -0.444444 -0.333333    0.00137174 245 t-inv T
  0.333333 -0.444444 -0.333333    0.00137174 246 t-inv T
  0.222222 -0.444444 -0.333333    0.00137174 247 t-inv T
[...]
      2     -13.6210      2.00000
      3     -12.4925      2.00000
      4     -12.4489      2.00000
      5      -4.7097      2.00000
      6      -3.7337      2.00000
      7      -1.8747      2.00000
      8      -1.1029      2.00000
      9      -1.0452      2.00000
     10      -0.0484      2.00000
     11       1.4108      2.00000
     12       2.3876      2.00000
     13       2.5442      2.00000
     14       3.0871      2.00000
     15       3.1627      2.00000
     16       3.3749      2.00000
     17   10000.0000      0.00000
     18   10000.0000      0.00000
     19   10000.0000      0.00000
     20   10000.0000      0.00000
     21   10000.0000      0.00000
     22   10000.0000      0.00000
     23   10000.0000      0.00000
     24   10000.0000      0.00000
     25   10000.0000      0.00000
     26   10000.0000      0.00000
     27   10000.0000      0.00000
     28   10000.0000      0.00000
     29   10000.0000      0.00000
     30   10000.0000      0.00000
     31   10000.0000      0.00000
     32   10000.0000      0.00000

 k-point   360 :       0.3333   -0.1111    0.4444
  band No.  band energies     occupation 
      1     -14.0722      2.00000
      2     -13.6725      2.00000
      3     -12.5373      2.00000
      4     -12.4881      2.00000
      5      -4.5855      2.00000
      6      -3.8339      2.00000
      7      -2.1616      2.00000
      8      -1.4744      2.00000
      9      -1.0014      2.00000
     10      -0.3295      2.00000
     11       1.9012      2.00000
     12       2.4851      2.00000
     13       2.8127      2.00000
     14       3.2777      2.00000
     15       3.4047      2.00000
     16       3.5171      2.00000
     17   10000.0000      0.00000
     18   10000.0000      0.00000
     19   10000.0000      0.00000
     20   10000.0000      0.00000
     21   10000.0000      0.00000
     22   10000.0000      0.00000
     23   10000.0000      0.00000
     24   10000.0000      0.00000
     25   10000.0000      0.00000
     26   10000.0000      0.00000
     27   10000.0000      0.00000
     28   10000.0000      0.00000
     29   10000.0000      0.00000
     30   10000.0000      0.00000
     31   10000.0000      0.00000
     32   10000.0000      0.00000

 k-point   361 :       0.4444   -0.1111    0.4444
  band No.  band energies     occupation 
      1     -13.9186      2.00000
      2     -13.7752      2.00000
      3     -12.5504      2.00000
      4     -12.5282      2.00000
      5      -4.3693      2.00000
      6      -4.0871      2.00000
      7      -2.1204      2.00000
      8      -1.8540      2.00000
      9      -0.8404      2.00000
     10      -0.6009      2.00000
     11       2.1776      2.00000
     12       2.3597      2.00000
     13       3.1906      2.00000
     14       3.4337      2.00000
     15       3.5288      2.00000
     16       3.5828      2.00000
     17   10000.0000      0.00000
     18   10000.0000      0.00000
     19   10000.0000      0.00000
     20   10000.0000      0.00000
     21   10000.0000      0.00000
     22   10000.0000      0.00000
     23   10000.0000      0.00000
     24   10000.0000      0.00000
     25   10000.0000      0.00000
     26   10000.0000      0.00000
     27   10000.0000      0.00000
     28   10000.0000      0.00000
     29   10000.0000      0.00000
     30   10000.0000      0.00000
     31   10000.0000      0.00000
     32   10000.0000      0.00000

 k-point   362 :      -0.4444   -0.1111    0.4444
  band No.  band energies     occupation 
      1     -13.9186      2.00000
      2     -13.7752      2.00000
      3     -12.5504      2.00000
      4     -12.5282      2.00000
      5      -4.3693      2.00000
      6      -4.0871      2.00000
      7      -2.1204      2.00000
      8      -1.8540      2.00000
      9      -0.8403      2.00000
     10      -0.6009      2.00000
     11       2.1776      2.00000
     12       2.3596      2.00000
     13       3.1897      2.00000
     14       3.4351      2.00000
     15       3.5278      2.00000
     16       3.5837      2.00000
     17   10000.0000      0.00000
     18   10000.0000      0.00000
     19   10000.0000      0.00000
     20   10000.0000      0.00000
     21   10000.0000      0.00000
     22   10000.0000      0.00000
     23   10000.0000      0.00000
     24   10000.0000      0.00000
     25   10000.0000      0.00000
     26   10000.0000      0.00000
     27   10000.0000      0.00000
     28   10000.0000      0.00000
     29   10000.0000      0.00000
     30   10000.0000      0.00000
     31   10000.0000      0.00000
     32   10000.0000      0.00000

 k-point   363 :      -0.3333   -0.1111    0.4444
  band No.  band energies     occupation 
      1     -14.0722      2.00000
      2     -13.6725      2.00000
      3     -12.5373      2.00000
      4     -12.4881      2.00000
      5      -4.5856      2.00000
      6      -3.8339      2.00000
      7      -2.1616      2.00000
      8      -1.4744      2.00000
      9      -1.0014      2.00000
     10      -0.3294      2.00000
     11       1.9011      2.00000
     12       2.4849      2.00000
     13       2.8123      2.00000
     14       3.2776      2.00000
     15       3.4054      2.00000
     16       3.5178      2.00000
     17   10000.0000      0.00000
     18   10000.0000      0.00000
     19   10000.0000      0.00000
     20   10000.0000      0.00000
     21   10000.0000      0.00000
     22   10000.0000      0.00000
     23   10000.0000      0.00000
     24   10000.0000      0.00000
     25   10000.0000      0.00000
     26   10000.0000      0.00000
     27   10000.0000      0.00000
     28   10000.0000      0.00000
     29   10000.0000      0.00000
     30   10000.0000      0.00000
     31   10000.0000      0.00000
     32   10000.0000      0.00000

 k-point   364 :      -0.2222   -0.1111    0.4444
  band No.  band energies     occupation 
      1     -14.2044      2.00000
      2     -13.6210      2.00000
      3     -12.4925      2.00000
      4     -12.4489      2.00000
      5      -4.7097      2.00000
      6      -3.7337      2.00000
      7      -1.8747      2.00000
      8      -1.1029      2.00000
      9      -1.0452      2.00000
     10      -0.0483      2.00000
     11       1.4107      2.00000
     12       2.3874      2.00000
     13       2.5440      2.00000
     14       3.0870      2.00000
     15       3.1631      2.00000
     16       3.3754      2.00000
     17   10000.0000      0.00000
     18   10000.0000      0.00000
     19   10000.0000      0.00000
     20   10000.0000      0.00000
     21   10000.0000      0.00000
     22   10000.0000      0.00000
     23   10000.0000      0.00000
     24   10000.0000      0.00000
     25   10000.0000      0.00000
     26   10000.0000      0.00000
     27   10000.0000      0.00000
     28   10000.0000      0.00000
     29   10000.0000      0.00000
     30   10000.0000      0.00000
     31   10000.0000      0.00000
     32   10000.0000      0.00000

 k-point   365 :      -0.1111   -0.1111    0.4444
  band No.  band energies     occupation 
      1     -14.2924      2.00000
      2     -13.6048      2.00000
      3     -12.4448      2.00000
      4     -12.4219      2.00000
      5      -4.7577      2.00000
      6      -3.7577      2.00000
      7      -1.3406      2.00000
      8      -0.9748      2.00000
      9      -0.8746      2.00000
     10       0.0570      2.00000
     11       1.0315      2.00000
     12       1.9482      2.00000
     13       2.3464      2.00000
     14       3.0383      2.00000
     15       3.0582      2.00000
     16       3.2202      2.00000
     17   10000.0000      0.00000
     18   10000.0000      0.00000
     19   10000.0000      0.00000
     20   10000.0000      0.00000
     21   10000.0000      0.00000
     22   10000.0000      0.00000
     23   10000.0000      0.00000
     24   10000.0000      0.00000
     25   10000.0000      0.00000
     26   10000.0000      0.00000
     27   10000.0000      0.00000
     28   10000.0000      0.00000
     29   10000.0000      0.00000
     30   10000.0000      0.00000
     31   10000.0000      0.00000
     32   10000.0000      0.00000


--------------------------------------------------------------------------------------------------------


 soft charge-density along one line, spin component           1
         0         1         2         3         4         5         6         7         8         9
 total charge-density along one line
 
 pseudopotential strength for first ion, spin component:           1
 14.261  17.788   0.001   0.002  -0.001   0.001   0.004  -0.001
 17.788  22.202   0.001   0.003  -0.001   0.001   0.005  -0.001
  0.001   0.001   3.203  -0.000  -0.000   5.459  -0.001  -0.001
  0.002   0.003  -0.000   3.208  -0.005  -0.001   5.467  -0.008
 -0.001  -0.001  -0.000  -0.005   3.208  -0.001  -0.008   5.467
  0.001   0.001   5.459  -0.001  -0.001   9.359  -0.001  -0.001
  0.004   0.005  -0.001   5.467  -0.008  -0.001   9.372  -0.013
 -0.001  -0.001  -0.001  -0.008   5.467  -0.001  -0.013   9.372
 -0.001  -0.001  -0.000   0.000   0.000  -0.000   0.000   0.000
 -0.001  -0.001   0.000   0.000   0.000   0.001   0.000   0.000
  0.003   0.004  -0.000   0.000   0.000  -0.000   0.001   0.000
 -0.010  -0.012   0.000  -0.000   0.000   0.000  -0.000   0.000
  0.005   0.006  -0.000  -0.000  -0.000  -0.000  -0.000  -0.000
 total augmentation occupancy for first ion, spin component:           1
  5.532  -2.600   0.001   0.026  -0.002  -0.000  -0.004   0.000   0.016   0.016   0.024  -0.083   0.041
 -2.600   1.411  -0.001  -0.032   0.003   0.000   0.006  -0.000  -0.017  -0.017  -0.013   0.044  -0.022
  0.001  -0.001   2.763   0.025   0.025  -0.730  -0.014  -0.014  -0.000  -0.001   0.002  -0.002  -0.000
  0.026  -0.032   0.025   2.996  -0.233  -0.014  -0.812   0.082  -0.002   0.002   0.001  -0.000   0.001
 -0.002   0.003   0.025  -0.233   2.996  -0.014   0.082  -0.812  -0.002  -0.002  -0.000   0.002   0.000
 -0.000   0.000  -0.730  -0.014  -0.014   0.206   0.005   0.005   0.000  -0.002   0.000  -0.000  -0.000
 -0.004   0.006  -0.014  -0.812   0.082   0.005   0.236  -0.030  -0.000   0.000  -0.002   0.000   0.000
  0.000  -0.000  -0.014   0.082  -0.812   0.005  -0.030   0.236  -0.000  -0.000  -0.000  -0.001   0.000
  0.016  -0.017  -0.000  -0.002  -0.002   0.000  -0.000  -0.000   0.180   0.009   0.046   0.062  -0.068
  0.016  -0.017  -0.001   0.002  -0.002  -0.002   0.000  -0.000   0.009   0.180  -0.082   0.062   0.006
  0.024  -0.013   0.002   0.001  -0.000   0.000  -0.002  -0.000   0.046  -0.082   0.147  -0.012  -0.041
 -0.083   0.044  -0.002  -0.000   0.002  -0.000   0.000  -0.001   0.062   0.062  -0.012   0.104  -0.020
  0.041  -0.022  -0.000   0.001   0.000  -0.000   0.000   0.000  -0.068   0.006  -0.041  -0.020   0.100


------------------------ aborting loop because EDIFF is reached ----------------------------------------


     CALCP:  cpu time   16.2315: real time   16.2382
 
            Ionic dipole moment: p[ion]=(     0.00000     0.00000     0.00000 ) electrons Angst
 
 Total electronic dipole moment: p[elc]=(    -0.00594    -0.00000     0.14140 ) electrons Angst
 
 
 Total change in dipole moment: dp[elc]=(    -0.00594    -0.00000     0.14140 ) electrons Angst
 
                            diag[e(oo)]=(       ----        ----      4.25620 )
 
    CHARGE:  cpu time    0.1554: real time    0.1554
    FORLOC:  cpu time    0.0005: real time    0.0005
    FORNL :  cpu time    0.2612: real time    0.2615
    STRESS:  cpu time    2.5219: real time    2.5228
    FORCOR:  cpu time    0.0083: real time    0.0085
    FORHAR:  cpu time    0.0020: real time    0.0020
    MIXING:  cpu time    0.0008: real time    0.0008
    OFIELD:  cpu time    0.0000: real time    0.0000
    DPSIDK:  cpu time   28.2388: real time   28.2536


 MACROSCOPIC STATIC DIELECTRIC TENSOR (including local field effects)
 -------------------------------------
           4.239    -0.000    -0.137
          -0.000     4.099    -0.000
          -0.142    -0.000     4.256
 -------------------------------------

 
 BORN EFFECTIVE CHARGES (including local field effects)
 ------------------------------------------------------
 ion    1
    1     4.27249     0.40523    -0.14415
    2     0.40536     4.12823     0.40536
    3    -0.14447     0.40741     4.27206
 ion    2
    1     4.27249    -0.40523    -0.14415
    2    -0.40536     4.12823    -0.40536
    3    -0.14447    -0.40741     4.27206
 ion    3
    1    -2.13606    -0.51235     0.07214
    2    -0.51183    -2.06281    -0.51182
    3     0.07825    -0.50588    -2.13058
 ion    4
    1    -2.13530    -0.51122     0.07282
    2    -0.51242    -2.06389    -0.51242
    3     0.06623    -0.52027    -2.14145
 ion    5
    1    -2.13526     0.51117     0.07286
    2     0.51181    -2.06280     0.51182
    3     0.06623     0.52027    -2.14145
 ion    6
    1    -2.13609     0.51240     0.07210
    2     0.51243    -2.06390     0.51243
    3     0.07825     0.50588    -2.13058

 PIEZOELECTRIC TENSOR (including local field effects) (e Angst)
          XX          YY          ZZ          XY          YZ          ZX
  --------------------------------------------------------------------------------
  x    -0.00301     0.00259     0.00517     0.00007     0.00007    -0.00180
  y     0.01078     0.00178     0.01078    -0.00004    -0.00004    -0.00235
  z     0.12757     0.09064     0.00809     0.00000     0.00000    -0.02651

 PIEZOELECTRIC TENSOR (including local field effects) (C/m^2)
          XX          YY          ZZ          XY          YZ          ZX
  --------------------------------------------------------------------------------
  x    -0.00087     0.00075     0.00149     0.00002     0.00002    -0.00052
  y     0.00311     0.00051     0.00311    -0.00001    -0.00001    -0.00068
  z     0.03678     0.02613     0.00233     0.00000     0.00000    -0.00764
    CHARGE:  cpu time    0.1596: real time    0.1598
    FORLOC:  cpu time    0.0004: real time    0.0004
    FORNL :  cpu time    0.2300: real time    0.2300
    STRESS:  cpu time    2.4580: real time    2.4591
    FORCOR:  cpu time    0.0083: real time    0.0083
    FORHAR:  cpu time    0.0020: real time    0.0020
    MIXING:  cpu time    0.0008: real time    0.0008
    OFIELD:  cpu time    0.0000: real time    0.0000

  FORCE on cell =-STRESS in cart. coord.  units (eV):
  Direction    XX          YY          ZZ          XY          YZ          ZX
  --------------------------------------------------------------------------------------
  Alpha Z   108.37460   108.37460   108.37460
  Ewald    -528.21085  -585.94936  -528.21085     0.00000     0.00000   -57.73851
  Hartree   159.55759   157.61334   159.55759     0.00000     0.00000    -1.94424
  E(xc)    -151.39239  -151.20496  -151.39239     0.00000    -0.00000     0.18742
  Local    -146.36951   -99.14864  -146.36951    -0.00000    -0.00000    47.22087
  n-local   -52.17530   -56.71824   -52.17530    -0.00000    -0.00000    -4.54294
  augment    27.65891    28.70673    27.65891     0.00000    -0.00000     1.04782
  Kinetic   588.86649   603.63757   588.86649     0.00000     0.00000    14.77109
  Fock        0.00000     0.00000     0.00000     0.00000     0.00000     0.00000
  -------------------------------------------------------------------------------------
  Total       6.30953     5.31105     6.30953    -0.00000    -0.00000    -0.99849
  in kB     181.91141   153.12384   181.91141    -0.00001    -0.00001   -28.78756
  external pressure =      172.32 kB  Pullay stress =        0.00 kB


 VOLUME and BASIS-vectors are now :
 -----------------------------------------------------------------------------
  energy-cutoff  :      520.00
  volume of cell :       55.57
      direct lattice vectors                 reciprocal lattice vectors
     3.115908418  0.000000000  3.115908418     0.160466847  0.000000000  0.160466847
     0.000000000  4.406559944  0.000000000     0.000000000  0.226934392  0.000000000
    -2.023640639  0.000000000  2.023640639    -0.247079442  0.000000000  0.247079442

  length of vectors
     4.406559944  4.406559944  2.861860037     0.226934392  0.226934392  0.349423098


 FORCES acting on ions
    electron-ion (+dipol)            ewald-force                    non-local-force                 convergence-correction
 -----------------------------------------------------------------------------------------------
   -.367E-09 -.222E-08 -.422E-09   -.213E-13 0.142E-13 -.213E-13   -.383E-09 -.108E-08 -.112E-09   0.000E+00 0.000E+00 0.000E+00
   0.288E-09 0.229E-08 0.437E-09   -.426E-13 -.284E-13 -.213E-13   0.721E-09 0.102E-08 0.360E-09   0.000E+00 0.000E+00 0.000E+00
   0.118E+02 0.167E+02 0.118E+02   -.147E+02 -.207E+02 -.147E+02   0.288E+01 0.407E+01 0.288E+01   0.000E+00 0.000E+00 0.000E+00
   -.118E+02 -.167E+02 -.118E+02   0.147E+02 0.207E+02 0.147E+02   -.288E+01 -.407E+01 -.288E+01   0.000E+00 0.000E+00 0.000E+00
   -.118E+02 0.167E+02 -.118E+02   0.147E+02 -.207E+02 0.147E+02   -.288E+01 0.407E+01 -.288E+01   0.000E+00 0.000E+00 0.000E+00
   0.118E+02 -.167E+02 0.118E+02   -.147E+02 0.207E+02 -.147E+02   0.288E+01 -.407E+01 0.288E+01   0.000E+00 0.000E+00 0.000E+00
 -----------------------------------------------------------------------------------------------
   -.319E-08 0.506E-09 -.432E-08   0.355E-14 -.711E-14 0.355E-14   0.364E-08 0.383E-09 0.455E-08   0.000E+00 0.000E+00 0.000E+00
 
 
 POSITION                                       TOTAL-FORCE (eV/Angst)
 -----------------------------------------------------------------------------------
      0.00000      0.00000      0.00000        -0.000000     -0.000000     -0.000000
      0.54613      2.20328      2.56977         0.000000      0.000000      0.000000
      0.94921      1.34239      0.94921        -0.000008     -0.000012     -0.000009
      2.16669      3.06417      2.16669         0.000008      0.000012      0.000009
     -0.40308      3.54567      1.62056         0.000009     -0.000012      0.000009
      1.49535      0.86089      3.51899        -0.000009      0.000012     -0.000009
 -----------------------------------------------------------------------------------
    total drift:                                0.000000      0.000000      0.000000


--------------------------------------------------------------------------------------------------------



  FREE ENERGIE OF THE ION-ELECTRON SYSTEM (eV)
  ---------------------------------------------------
  free  energy   TOTEN  =       -38.15061194 eV

  energy  without entropy=      -38.15061194  energy(sigma->0) =      -38.15061194
 


--------------------------------------------------------------------------------------------------------


    POTLOK:  cpu time    0.0137: real time    0.0137


--------------------------------------------------------------------------------------------------------


     LOOP+:  cpu time 5614.1271: real time 5763.3031
    4ORBIT:  cpu time    0.0000: real time    0.0000

 total amount of memory used by VASP MPI-rank0   158494. kBytes
=======================================================================

   base      :      30000. kBytes
   nonl-proj :     116760. kBytes
   fftplans  :        480. kBytes
   grid      :       1862. kBytes
   one-center:         48. kBytes
   wavefun   :       9344. kBytes
 
  
  
 General timing and accounting informations for this job:
 ========================================================
  
                  Total CPU time used (sec):     5620.007
                            User time (sec):     5609.687
                          System time (sec):       10.320
                         Elapsed time (sec):     5829.021
  
                   Maximum memory used (kb):      377080.
                   Average memory used (kb):           0.
  
                          Minor page faults:      3332346
                          Major page faults:            0
                 Voluntary context switches:        61137
